ITEM: TIMESTEP
10
ITEM: NUMBER OF ENTRIES
17334
ITEM: BOX BOUNDS pp pp pp
9.5797233455851227e-02 4.2345702766531630e+01
1.1986670956564041e+00 4.1242832904155478e+01
-1.2476159033416145e+00 4.3689115903350697e+01
ITEM: ENTRIES c2_1[1] c2_1[2] c2_1[3] c2_1[4] c2_1[5] c2_2[1] c2_2[2] c2_2[3] 
1872 1873 1868 1867 75 176.36 -0.997982 0.995968 
1899 1873 1868 1867 102 9.08867 0.987445 0.975048 
1868 1873 1872 1871 72 5.04119 0.996132 0.992279 
1868 1873 1872 1898 73 178.707 -0.999746 0.999491 
1871 1872 1873 1899 73 173.135 -0.99283 0.985711 
1873 1872 1871 1874 76 177.371 -0.998948 0.997897 
1898 1872 1871 1874 103 4.10638 0.997433 0.994872 
1898 1872 1873 1899 100 -13.1991 0.973582 0.947863 
1869 1868 1867 1866 78 -109.218 -0.329168 0.108352 
1873 1868 1867 1866 78 77.1412 0.222549 0.0495279 
1869 1868 1873 1872 72 2.63172 0.998945 0.997892 
1869 1868 1873 1899 73 -164.639 -0.964277 0.929829 
1873 1868 1869 1896 73 169.398 -0.982928 0.966148 
5379 5380 5381 5411 34 174.937 -0.996099 0.992213 
5379 5380 5381 5412 34 50.8317 0.631601 0.39892 
5379 5380 5381 5382 32 -72.821 0.295358 0.0872365 
5381 5380 5379 5407 34 -53.3899 0.596366 0.355652 
5381 5380 5379 5408 34 65.3313 0.417371 0.174199 
5409 5380 5381 5411 88 -68.2878 0.369945 0.136859 
5409 5380 5381 5412 88 167.607 -0.976697 0.953937 
5410 5380 5381 5411 88 47.8281 0.671357 0.45072 
5410 5380 5381 5412 88 -76.2775 0.237219 0.0562728 
5380 5381 5382 5413 34 50.8509 0.63134 0.39859 
5380 5381 5382 5414 34 -67.412 0.384102 0.147534 
5380 5381 5382 5383 32 174.744 -0.995795 0.991608 
5382 5381 5380 5409 34 43.9539 0.719898 0.518253 
5382 5381 5380 5410 34 160.07 -0.940109 0.883804 
5411 5381 5382 5413 88 169.14 -0.982089 0.9645 
5411 5381 5382 5414 88 50.8768 0.63099 0.398149 
5412 5381 5382 5413 88 -74.9792 0.259169 0.0671686 
5412 5381 5382 5414 88 166.758 -0.973411 0.947528 
1870 1871 1872 1873 72 -10.3232 0.983812 0.967887 
1870 1871 1872 1898 73 176.412 -0.99804 0.996083 
1870 1871 1874 1875 80 -20.2655 0.938098 0.880027 
1872 1871 1870 1897 73 -174.086 -0.994678 0.989384 
1872 1871 1874 1875 80 151.442 -0.87833 0.771463 
3800 3775 3774 3771 99 -177.95 -0.99936 0.998721 
3801 3775 3774 3771 99 63.3521 0.448507 0.201159 
3802 3775 3774 3771 99 -56.066 0.558238 0.31163 
1870 1869 1868 1867 75 -179.009 -0.99985 0.999701 
1896 1869 1868 1867 102 -4.6104 0.996764 0.993539 
1868 1869 1870 1871 72 -0.268075 0.999989 0.999978 
1868 1869 1870 1897 73 -178.516 -0.999665 0.99933 
1870 1869 1868 1873 72 -5.00038 0.996194 0.992403 
1896 1869 1870 1897 100 7.04709 0.992446 0.984948 
1900 1875 1874 1871 99 -168.422 -0.979653 0.95972 
1901 1875 1874 1871 99 71.0192 0.325251 0.105788 
1902 1875 1874 1871 99 -52.9215 0.602909 0.363499 
1869 1870 1871 1872 72 7.85794 0.99061 0.981308 
1869 1870 1871 1874 76 179.374 -0.99994 0.999881 
1871 1870 1869 1896 73 -174.705 -0.995732 0.991483 
1897 1870 1871 1874 103 -2.56967 0.998994 0.99799 
5659 5660 5661 5662 38 -15.8062 0.962189 0.925807 
5659 5660 5661 5703 37 168.624 -0.980355 0.961096 
5661 5660 5659 5708 67 78.7809 0.194561 0.0378539 
5661 5660 5659 5709 67 -42.9232 0.732267 0.536215 
5710 5660 5661 5662 93 103.503 -0.233488 0.0545166 
5711 5660 5661 5662 93 -137.024 -0.731638 0.535295 
5710 5660 5661 5703 92 -72.067 0.307905 0.0948055 
5711 5660 5661 5703 92 47.4066 0.676791 0.458046 
5660 5661 5662 5663 41 170.627 -0.98665 0.973479 
5703 5661 5662 5663 105 -13.768 0.971267 0.94336 
5407 5379 5378 5377 89 -57.4344 0.538265 0.289729 
5408 5379 5378 5377 89 -175.246 -0.996559 0.99313 
5380 5379 5378 5377 35 66.9681 0.391244 0.153072 
5378 5379 5380 5409 34 70.003 0.341971 0.116944 
5378 5379 5380 5410 34 -52.791 0.604724 0.365691 
5378 5379 5380 5381 32 -175.378 -0.996747 0.993505 
5380 5379 5378 5405 34 -170.573 -0.986496 0.973175 
5380 5379 5378 5406 34 -46.0814 0.693636 0.481131 
5407 5379 5380 5409 88 -168.009 -0.978181 0.956839 
5407 5379 5380 5410 88 69.1966 0.355162 0.12614 
5408 5379 5380 5409 88 -49.2882 0.652255 0.425437 
5408 5379 5380 5410 88 -172.082 -0.990467 0.981024 
1867 1866 1863 1862 107 -164.572 -0.963965 0.929229 
1876 1866 1863 1862 104 16.0547 0.960998 0.923517 
1863 1866 1867 1868 71 178.015 -0.9994 0.9988 
1867 1866 1863 1864 107 17.8909 0.951643 0.905625 
1876 1866 1863 1864 104 -161.482 -0.948227 0.899134 
1876 1866 1867 1868 106 -2.60066 0.99897 0.997941 
5376 5402 5403 5430 68 -168.484 -0.979868 0.960141 
5376 5402 5403 5431 68 64.6938 0.427456 0.182718 
5376 5402 5403 5432 68 -55.9074 0.560532 0.314196 
5428 5402 5376 5377 93 161.045 -0.945774 0.894489 
5429 5402 5376 5377 93 41.3371 0.750837 0.563755 
5403 5402 5376 5377 57 -82.774 0.125783 0.0158213 
5403 5402 5376 5404 56 95.7529 -0.100239 0.0100478 
5428 5402 5376 5404 92 -20.428 0.937112 0.878178 
5429 5402 5376 5404 92 -140.136 -0.767567 0.58916 
5428 5402 5403 5430 91 -60.7135 0.489177 0.239294 
5428 5402 5403 5431 91 172.464 -0.991363 0.9828 
5428 5402 5403 5432 91 51.8628 0.617547 0.381365 
5429 5402 5403 5430 91 60.712 0.489199 0.239316 
5429 5402 5403 5431 91 -66.1105 0.404974 0.164004 
5429 5402 5403 5432 91 173.288 -0.993147 0.98634 
1866 1863 1862 1861 69 -178.008 -0.999396 0.998792 
1862 1863 1864 1865 72 3.22843 0.998413 0.996828 
1862 1863 1864 1894 73 171.857 -0.989918 0.979938 
1864 1863 1862 1893 73 -173.802 -0.994156 0.988345 
1866 1863 1864 1865 69 -179.259 -0.999916 0.999833 
1866 1863 1862 1893 70 8.51052 0.988989 0.978099 
1866 1863 1864 1894 70 -10.6297 0.98284 0.965974 
1863 1864 1865 1895 73 -175.631 -0.997094 0.994196 
1894 1864 1865 1895 100 14.2729 0.969132 0.939217 
1861 1860 1859 1858 79 -144.036 -0.809387 0.655107 
1865 1860 1859 1858 79 40.4925 0.760491 0.578347 
1861 1860 1865 1864 72 -0.0754362 0.999999 0.999998 
1861 1860 1865 1895 73 172.412 -0.991244 0.982565 
1865 1860 1861 1892 73 177.338 -0.998921 0.997843 
1861 1862 1863 1864 72 -0.321425 0.999984 0.999969 
1863 1862 1861 1892 73 -177.59 -0.999116 0.998232 
1862 1861 1860 1859 76 -172.624 -0.991724 0.983517 
1892 1861 1860 1859 103 1.57295 0.999623 0.999247 
1860 1861 1862 1863 72 -2.98151 0.998646 0.997295 
1860 1861 1862 1893 73 170.771 -0.987055 0.974277 
1862 1861 1860 1865 72 3.14132 0.998497 0.996997 
1892 1861 1862 1893 100 -3.83776 0.997758 0.99552 
5402 5376 5377 5378 41 173.337 -0.993246 0.986538 
5404 5376 5377 5378 105 -4.93234 0.996297 0.992608 
5405 5378 5377 5376 94 79.2508 0.186511 0.0347863 
5406 5378 5377 5376 94 -46.389 0.689758 0.475767 
5379 5378 5377 5376 39 -159.263 -0.935215 0.874627 
5405 5378 5379 5407 88 65.024 0.422238 0.178285 
5405 5378 5379 5408 88 -52.7873 0.604776 0.365754 
5406 5378 5379 5407 88 -170.484 -0.986239 0.972667 
5406 5378 5379 5408 88 71.7049 0.313912 0.0985408 
4119 4091 4090 4089 89 173.063 -0.99268 0.985414 
4120 4091 4090 4089 89 50.3512 0.63808 0.407146 
4092 4091 4090 4089 35 -67.7421 0.378777 0.143472 
4090 4091 4092 4121 34 62.214 0.46617 0.217314 
4090 4091 4092 4122 34 -57.0552 0.54383 0.295752 
4090 4091 4092 4093 32 -177.375 -0.998951 0.997903 
4092 4091 4090 4117 34 48.2917 0.665339 0.442676 
4092 4091 4090 4118 34 177.578 -0.999107 0.998214 
4119 4091 4092 4121 88 -174.762 -0.995825 0.991667 
4119 4091 4092 4122 88 65.9684 0.40724 0.165844 
4120 4091 4092 4121 88 -51.0128 0.629146 0.395825 
4120 4091 4092 4122 88 -170.282 -0.985651 0.971507 
3320 3321 3322 3352 73 163.094 -0.956782 0.915432 
3351 3321 3322 3352 100 -3.93633 0.997641 0.995287 
4117 4090 4089 4088 94 70.5077 0.333681 0.111343 
4118 4090 4089 4088 94 -61.6211 0.4753 0.22591 
4091 4090 4089 4088 39 -176.628 -0.998269 0.99654 
4117 4090 4091 4119 88 -70.9029 0.32717 0.10704 
4117 4090 4091 4120 88 166.385 -0.971899 0.944588 
4118 4090 4091 4119 88 58.3832 0.524235 0.274822 
4118 4090 4091 4120 88 -64.3289 0.433204 0.187666 
3324 3323 3320 3319 107 -165.348 -0.967481 0.936019 
3333 3323 3320 3319 104 3.08129 0.998554 0.997111 
3320 3323 3324 3325 71 -172.859 -0.992244 0.984549 
3324 3323 3320 3321 107 14.2101 0.969402 0.939741 
3333 3323 3320 3321 104 -177.36 -0.998939 0.997879 
3333 3323 3324 3325 106 18.203 0.949956 0.902416 
3323 3320 3319 3318 69 175.225 -0.996529 0.99307 
3319 3320 3321 3322 72 -1.68409 0.999568 0.999136 
3319 3320 3321 3351 73 165.437 -0.967872 0.936776 
3321 3320 3319 3350 73 178.62 -0.99971 0.99942 
3323 3320 3321 3322 69 178.818 -0.999787 0.999575 
3323 3320 3319 3350 70 -1.83945 0.999485 0.99897 
3323 3320 3321 3351 70 -14.0605 0.97004 0.940977 
2112 2068 2042 2041 98 -79.7461 0.178011 0.031688 
2113 2068 2042 2041 98 163.204 -0.957337 0.916495 
2114 2068 2042 2041 98 44.7252 0.710491 0.504797 
2112 2068 2042 2043 98 108.115 -0.310929 0.0966771 
2113 2068 2042 2043 98 -8.93514 0.987865 0.975877 
2114 2068 2042 2043 98 -127.414 -0.607564 0.369133 
4091 4092 4093 4123 34 165.585 -0.968517 0.938025 
4091 4092 4093 4124 34 61.5805 0.475923 0.226503 
4091 4092 4093 4094 32 -66.0276 0.406297 0.165077 
4093 4092 4091 4119 34 -54.3514 0.582812 0.33967 
4093 4092 4091 4120 34 69.3981 0.351873 0.123815 
4121 4092 4093 4123 88 -71.5208 0.31696 0.100464 
4121 4092 4093 4124 88 -175.525 -0.996952 0.993912 
4122 4092 4093 4123 88 43.8538 0.72111 0.519999 
4122 4092 4093 4124 88 -60.1504 0.497725 0.24773 
4092 4093 4094 4125 34 96.7289 -0.117171 0.0137291 
4092 4093 4094 4126 34 -8.32381 0.989466 0.979042 
4092 4093 4094 4095 32 -149.165 -0.858643 0.737267 
4094 4093 4092 4121 34 56.8669 0.546586 0.298756 
4094 4093 4092 4122 34 172.242 -0.990846 0.981776 
4123 4093 4094 4125 88 -137.964 -0.742719 0.551631 
4123 4093 4094 4126 88 116.984 -0.453739 0.205879 
4124 4093 4094 4125 88 -29.5634 0.869811 0.75657 
4124 4093 4094 4126 88 -134.616 -0.702353 0.493299 
3339 3311 3310 3309 89 -52.2757 0.611863 0.374376 
3340 3311 3310 3309 89 -174.049 -0.994611 0.989251 
3312 3311 3310 3309 35 69.2749 0.353885 0.125234 
3310 3311 3312 3341 34 28.3955 0.879686 0.773848 
3310 3311 3312 3342 34 -82.8528 0.12442 0.0154803 
3310 3311 3312 3313 32 155.504 -0.909994 0.828089 
3312 3311 3310 3337 34 -162.795 -0.95525 0.912503 
3312 3311 3310 3338 34 -44.467 0.713654 0.509303 
3339 3311 3312 3341 88 149.707 -0.863455 0.745554 
3339 3311 3312 3342 88 38.4585 0.783059 0.613181 
3340 3311 3312 3341 88 -95.5497 -0.0967086 0.00935256 
3340 3311 3312 3342 88 153.202 -0.892602 0.796739 
4093 4094 4095 4127 34 160.001 -0.939698 0.883033 
4093 4094 4095 4128 34 51.0927 0.628062 0.394462 
4093 4094 4095 4096 36 -69.631 0.348065 0.121149 
4095 4094 4093 4123 34 -23.8569 0.914558 0.836417 
4095 4094 4093 4124 34 84.5432 0.0950944 0.00904294 
4125 4094 4095 4096 90 48.4356 0.663461 0.44018 
4126 4094 4095 4096 90 152.156 -0.884226 0.781855 
4125 4094 4095 4127 88 -81.9324 0.140341 0.0196957 
4125 4094 4095 4128 88 169.159 -0.982154 0.964627 
4126 4094 4095 4127 88 21.7883 0.928561 0.862226 
4126 4094 4095 4128 88 -87.1199 0.0502462 0.00252468 
4094 4095 4096 4097 40 -139.737 -0.763084 0.582297 
4127 4095 4096 4097 95 -12.4852 0.976352 0.953263 
4128 4095 4096 4097 95 95.6931 -0.0991996 0.00984055 
4099 4098 4097 4096 76 177.488 -0.999039 0.998079 
4129 4098 4097 4096 103 -6.55922 0.993454 0.986951 
4097 4098 4099 4100 72 2.43717 0.999095 0.998192 
4097 4098 4099 4130 73 169.598 -0.983566 0.967402 
4099 4098 4097 4102 72 -1.79573 0.999509 0.999018 
4129 4098 4099 4130 100 -6.04312 0.994443 0.988917 
1703 1704 1705 1731 73 170.761 -0.987028 0.974225 
1705 1704 1703 1706 76 -176.32 -0.997938 0.995881 
1730 1704 1703 1706 103 -21.494 0.930456 0.865748 
1730 1704 1705 1731 100 15.8137 0.962153 0.925738 
2961 2936 2935 2932 99 134.185 -0.696982 0.485785 
2962 2936 2935 2932 99 11.3427 0.980468 0.961318 
2963 2936 2935 2932 99 -98.5066 -0.147923 0.0218812 
4098 4099 4100 4101 72 -1.25456 0.99976 0.999521 
4100 4099 4098 4129 73 -173.204 -0.992974 0.985998 
4098 4097 4096 4095 79 -95.9955 -0.10445 0.0109098 
4102 4097 4096 4095 79 83.2931 0.11679 0.0136398 
4098 4097 4102 4101 72 -0.137609 0.999997 0.999994 
4098 4097 4102 4132 73 -167.095 -0.974743 0.950123 
4102 4097 4098 4129 73 174.157 -0.994804 0.989636 
3313 3314 3315 3347 34 -76.9769 0.225344 0.0507801 
3313 3314 3315 3348 34 168.13 -0.978618 0.957693 
3313 3314 3315 3316 36 52.3857 0.610343 0.372518 
3315 3314 3313 3343 34 -65.2057 0.419362 0.175864 
3315 3314 3313 3344 34 55.7173 0.563277 0.317281 
3345 3314 3315 3316 90 171.419 -0.988807 0.977738 
3346 3314 3315 3316 90 -72.1284 0.306885 0.0941785 
3345 3314 3315 3347 88 42.0567 0.742482 0.55128 
3345 3314 3315 3348 88 -72.8362 0.295105 0.087087 
3346 3314 3315 3347 88 158.509 -0.930475 0.865785 
3346 3314 3315 3348 88 43.6162 0.723977 0.524143 
2931 2932 2933 2934 72 0.125272 0.999998 0.999995 
2931 2932 2933 2959 73 173.017 -0.992583 0.985221 
2931 2932 2935 2936 80 -131.218 -0.658926 0.434183 
2933 2932 2931 2958 73 -179.276 -0.99992 0.99984 
2933 2932 2935 2936 80 51.243 0.626018 0.391899 
3321 3322 3317 3316 76 179.642 -0.99998 0.999961 
3352 3322 3317 3316 103 20.815 0.934733 0.873725 
3317 3322 3321 3320 72 3.7633 0.997844 0.995692 
3317 3322 3321 3351 73 -163.267 -0.957656 0.917105 
3337 3310 3309 3308 94 48.445 0.663338 0.440017 
3338 3310 3309 3308 94 -75.3757 0.25248 0.063746 
3311 3310 3309 3308 39 172.835 -0.99219 0.984441 
3337 3310 3311 3339 88 75.6549 0.247762 0.0613861 
3337 3310 3311 3340 88 -46.1185 0.69317 0.480484 
3338 3310 3311 3339 88 -166.018 -0.97037 0.941617 
3338 3310 3311 3340 88 72.2091 0.305543 0.0933568 
2932 2933 2934 2960 73 179.882 -0.999998 0.999996 
2934 2933 2932 2935 76 177.788 -0.999255 0.998511 
2959 2933 2932 2935 103 -9.3195 0.986801 0.973776 
2959 2933 2934 2960 100 6.90065 0.992756 0.985564 
5439 5440 5441 5442 40 169.613 -0.983612 0.967493 
5472 5440 5441 5442 95 -74.9409 0.259815 0.0675041 
5473 5440 5441 5442 95 47.6034 0.674258 0.454624 
5437 5438 5439 5470 34 -71.5142 0.317069 0.100533 
5437 5438 5439 5471 34 179.738 -0.99999 0.999979 
5437 5438 5439 5440 32 56.2201 0.556004 0.309141 
5439 5438 5437 5466 34 -174.977 -0.996159 0.992333 
5439 5438 5437 5467 34 -63.3231 0.448959 0.201565 
5468 5438 5439 5470 88 58.2387 0.526381 0.277077 
5468 5438 5439 5471 88 -50.5093 0.635953 0.404436 
5469 5438 5439 5470 88 174.558 -0.995493 0.991007 
5469 5438 5439 5471 88 65.8103 0.409758 0.167902 
5438 5439 5440 5472 34 -79.3899 0.184125 0.0339021 
5438 5439 5440 5473 34 156.528 -0.917254 0.841354 
5438 5439 5440 5441 36 37.495 0.793407 0.629494 
5440 5439 5438 5468 34 -174.027 -0.994571 0.989171 
5440 5439 5438 5469 34 -57.7073 0.534245 0.285418 
5470 5439 5440 5441 90 161.129 -0.946249 0.895388 
5471 5439 5440 5441 90 -76.8537 0.227439 0.0517283 
5470 5439 5440 5472 88 44.2442 0.716373 0.51319 
5470 5439 5440 5473 88 -79.8381 0.17643 0.0311275 
5471 5439 5440 5472 88 166.261 -0.97139 0.943598 
5471 5439 5440 5473 88 42.1792 0.741049 0.549153 
5462 5435 5434 5433 94 68.6055 0.364788 0.13307 
5463 5435 5434 5433 94 -50.5628 0.635232 0.40352 
5436 5435 5434 5433 39 -169.996 -0.984796 0.969824 
5462 5435 5436 5464 88 26.4389 0.89541 0.801759 
5462 5435 5436 5465 88 -85.1393 0.0847334 0.00717975 
5463 5435 5436 5464 88 150.359 -0.869143 0.75541 
5463 5435 5436 5465 88 38.7811 0.779545 0.60769 
5436 5437 5438 5468 34 -67.3543 0.385031 0.148249 
5436 5437 5438 5469 34 177.906 -0.999332 0.998665 
5436 5437 5438 5439 32 59.3059 0.510455 0.260564 
5438 5437 5436 5464 34 -54.1971 0.584998 0.342223 
5438 5437 5436 5465 34 56.0348 0.55869 0.312134 
5466 5437 5438 5468 88 58.363 0.524535 0.275137 
5466 5437 5438 5469 88 -56.3765 0.553733 0.30662 
5467 5437 5438 5468 88 170.017 -0.984859 0.969946 
5467 5437 5438 5469 88 55.2772 0.569607 0.324452 
5464 5436 5435 5434 89 -92.2866 -0.0398985 0.00159189 
5465 5436 5435 5434 89 156.135 -0.914503 0.836315 
5437 5436 5435 5434 35 36.1581 0.807392 0.651883 
5435 5436 5437 5466 34 53.3221 0.597316 0.356787 
5435 5436 5437 5467 34 -68.6118 0.364685 0.132995 
5435 5436 5437 5438 32 178.971 -0.999839 0.999678 
5437 5436 5435 5462 34 154.884 -0.905447 0.819834 
5437 5436 5435 5463 34 -81.1961 0.153053 0.0234253 
5464 5436 5437 5466 88 -179.846 -0.999996 0.999993 
5464 5436 5437 5467 88 58.2197 0.526664 0.277375 
5465 5436 5437 5466 88 -69.6145 0.348334 0.121337 
5465 5436 5437 5467 88 168.452 -0.979756 0.959922 
3357 3332 3331 3328 99 51.972 0.616046 0.379513 
3358 3332 3331 3328 99 -66.1208 0.404809 0.16387 
3359 3332 3331 3328 99 178.031 -0.99941 0.998819 
3381 3380 3379 3378 78 -97.4285 -0.129289 0.0167156 
3385 3380 3379 3378 78 114.046 -0.407467 0.166029 
3381 3380 3385 3384 72 19.1041 0.944926 0.892885 
3381 3380 3385 3411 73 -173.77 -0.994094 0.988223 
3385 3380 3381 3408 73 179.843 -0.999996 0.999993 
3379 3378 3375 3374 107 13.4914 0.972405 0.945572 
3388 3378 3375 3374 104 -160.096 -0.940267 0.884101 
3375 3378 3379 3380 71 -174.781 -0.995855 0.991727 
3379 3378 3375 3376 107 -174.816 -0.99591 0.991836 
3388 3378 3375 3376 104 11.5963 0.979588 0.959593 
3388 3378 3379 3380 106 -0.781511 0.999907 0.999814 
2049 2050 2051 2052 72 13.987 0.970351 0.94158 
2049 2050 2051 2054 76 -171.641 -0.989378 0.978868 
2051 2050 2049 2093 73 -176.042 -0.997615 0.995236 
2094 2050 2051 2054 103 2.31532 0.999184 0.998368 
3326 3327 3328 3329 72 4.50774 0.996907 0.993823 
3326 3327 3328 3331 76 -175.698 -0.997183 0.994374 
3328 3327 3326 3353 73 175.031 -0.996242 0.992498 
3354 3327 3328 3331 103 10.1755 0.984271 0.96879 
3327 3328 3329 3330 72 -3.12976 0.998508 0.997019 
3327 3328 3329 3355 73 175.879 -0.997415 0.994836 
3327 3328 3331 3332 80 -31.9129 0.848852 0.72055 
3329 3328 3327 3354 73 -169.618 -0.983629 0.967526 
3329 3328 3331 3332 80 147.891 -0.84704 0.717478 
3327 3326 3325 3324 75 -175.333 -0.996684 0.99338 
3353 3326 3325 3324 102 16.3138 0.959737 0.921096 
3325 3326 3327 3328 72 6.22932 0.994096 0.988226 
3325 3326 3327 3354 73 -179.199 -0.999902 0.999804 
3327 3326 3325 3330 72 -17.2568 0.954985 0.911996 
3353 3326 3327 3354 100 -10.3967 0.983582 0.967433 
3326 3325 3324 3323 78 -77.4895 0.216618 0.0469235 
3330 3325 3324 3323 78 124.038 -0.559741 0.31331 
3326 3325 3330 3329 72 18.7246 0.947073 0.896947 
3326 3325 3330 3356 73 -178.354 -0.999587 0.999175 
3330 3325 3326 3353 73 174.39 -0.99521 0.990444 
2048 2049 2050 2051 72 -9.85911 0.985232 0.970682 
2048 2049 2050 2094 73 176.198 -0.9978 0.995604 
2050 2049 2048 2053 72 -0.143863 0.999997 0.999994 
2093 2049 2050 2094 100 10.0154 0.984761 0.969754 
3328 3329 3330 3356 73 -170.881 -0.987361 0.974881 
3330 3329 3328 3331 76 177.056 -0.99868 0.997362 
3355 3329 3328 3331 103 -3.9352 0.997642 0.99529 
3355 3329 3330 3356 100 10.0954 0.984517 0.969275 
3329 3330 3325 3324 75 179.569 -0.999972 0.999943 
3356 3330 3325 3324 102 -17.5091 0.953669 0.909485 
3325 3330 3329 3328 72 -8.78138 0.988278 0.976693 
3325 3330 3329 3355 73 172.195 -0.990735 0.981557 
2042 2043 2044 2045 72 -1.87958 0.999462 0.998924 
2042 2043 2044 2091 73 175.927 -0.997474 0.994954 
2042 2043 2046 2047 78 -95.5198 -0.0961898 0.00925248 
2044 2043 2046 2047 78 84.1175 0.102489 0.0105039 
2048 2047 2046 2043 71 175.238 -0.996549 0.993109 
2069 2047 2046 2043 106 1.05705 0.99983 0.99966 
2046 2047 2048 2049 107 30.453 0.862045 0.743122 
2046 2047 2048 2053 107 -149.581 -0.862344 0.743637 
2069 2047 2048 2049 104 -155.584 -0.910566 0.829131 
2069 2047 2048 2053 104 24.3825 0.91081 0.829574 
2043 2044 2045 2092 73 175.296 -0.996632 0.993275 
2045 2044 2043 2046 75 178.487 -0.999651 0.999303 
2091 2044 2043 2046 102 -3.70675 0.997908 0.99582 
2091 2044 2045 2092 100 -2.7306 0.998865 0.99773 
2047 2048 2049 2050 69 179.823 -0.999995 0.99999 
2047 2048 2049 2093 70 -13.8049 0.971114 0.943062 
2047 2048 2053 2052 69 -174.813 -0.995905 0.991827 
2047 2048 2053 2096 70 11.0686 0.981398 0.963142 
2049 2048 2053 2052 72 5.15497 0.995955 0.991927 
2049 2048 2053 2096 73 -168.963 -0.981504 0.963351 
2053 2048 2049 2093 73 166.228 -0.971252 0.94333 
2068 2042 2041 2040 58 -177.75 -0.999229 0.998459 
2041 2042 2043 2044 72 10.5886 0.982972 0.966234 
2041 2042 2043 2046 75 -169.796 -0.984182 0.968615 
2043 2042 2041 2090 73 175.569 -0.997011 0.99403 
2068 2042 2043 2044 58 -176.99 -0.99862 0.997242 
2068 2042 2043 2046 60 2.62614 0.99895 0.997901 
2068 2042 2041 2090 59 3.08368 0.998552 0.997106 
2042 2041 2040 2039 75 -156.625 -0.917927 0.842589 
2090 2041 2040 2039 102 22.456 0.924173 0.854096 
2040 2041 2042 2043 72 -5.26506 0.995781 0.991579 
2042 2041 2040 2045 72 -8.18558 0.989812 0.979728 
2044 2045 2040 2039 75 169.189 -0.982251 0.964817 
2092 2045 2040 2039 102 -18.0787 0.950631 0.9037 
2040 2045 2044 2043 72 -13.0102 0.97433 0.949319 
2040 2045 2044 2091 73 168.963 -0.981504 0.963349 
2041 2040 2039 2038 78 -102.109 -0.209765 0.0440013 
2045 2040 2039 2038 78 109.506 -0.333905 0.111493 
2041 2040 2045 2044 72 17.4599 0.953927 0.909977 
2041 2040 2045 2092 73 -169.808 -0.984219 0.968688 
2045 2040 2041 2090 73 170.895 -0.987401 0.97496 
4101 4102 4097 4096 76 -179.447 -0.999954 0.999907 
4132 4102 4097 4096 103 13.5949 0.971982 0.944749 
4097 4102 4101 4100 72 1.24529 0.999764 0.999528 
4097 4102 4101 4131 73 173.121 -0.992802 0.985655 
4103 4100 4099 4098 69 174.931 -0.996088 0.992192 
4099 4100 4101 4102 72 -0.554872 0.999953 0.999906 
4099 4100 4101 4131 73 -173.093 -0.992744 0.98554 
4101 4100 4099 4130 73 -168.868 -0.981184 0.962722 
4103 4100 4101 4102 69 -176.305 -0.997921 0.995847 
4103 4100 4099 4130 70 7.31742 0.991856 0.983778 
4103 4100 4101 4131 70 11.1564 0.981103 0.962563 
4100 4101 4102 4132 73 168.914 -0.98134 0.963028 
4131 4101 4102 4132 100 -19.21 0.944319 0.891738 
2036 2037 2032 2031 76 -169.162 -0.982162 0.964641 
2089 2037 2032 2031 103 -0.375325 0.999979 0.999957 
2032 2037 2036 2035 72 -6.155 0.994235 0.988504 
2032 2037 2036 2088 73 -178.932 -0.999826 0.999652 
2039 2038 2035 2034 107 -169.562 -0.983451 0.967177 
2067 2038 2035 2034 104 10.1358 0.984393 0.96903 
2035 2038 2039 2040 71 -171.095 -0.987946 0.976038 
2039 2038 2035 2036 107 1.39037 0.999706 0.999411 
2067 2038 2035 2036 104 -178.912 -0.99982 0.999639 
2067 2038 2039 2040 106 9.17272 0.987212 0.974588 
2038 2035 2034 2033 69 173.42 -0.993412 0.986868 
2034 2035 2036 2037 72 -0.0088278 1 1 
2034 2035 2036 2088 73 171.422 -0.988813 0.97775 
2036 2035 2034 2087 73 176.477 -0.99811 0.996224 
2038 2035 2036 2037 69 -171.127 -0.988034 0.97621 
2038 2035 2034 2087 70 -12.3178 0.97698 0.954489 
2038 2035 2036 2088 70 0.303058 0.999986 0.999972 
2035 2036 2037 2089 73 -174.786 -0.995862 0.991741 
2088 2036 2037 2089 100 12.4374 0.976532 0.953615 
3647 3648 3649 3650 72 1.32266 0.999734 0.999467 
3649 3648 3647 3678 73 173.088 -0.992732 0.985517 
2033 2032 2031 2030 79 -6.72189 0.993126 0.986299 
2037 2032 2031 2030 79 172.075 -0.990449 0.980989 
2033 2032 2037 2036 72 9.66336 0.985811 0.971823 
2033 2032 2037 2089 73 178.45 -0.999634 0.999268 
2037 2032 2033 2086 73 175.783 -0.997292 0.994592 
3648 3647 3646 3645 76 -178.339 -0.99958 0.99916 
3678 3647 3646 3645 103 12.2354 0.977285 0.955087 
3646 3647 3648 3649 72 1.75433 0.999531 0.999063 
3646 3647 3648 3679 73 178.579 -0.999693 0.999385 
3648 3647 3646 3651 72 -4.44667 0.99699 0.993989 
3678 3647 3648 3679 100 -10.087 0.984543 0.969325 
3653 3652 3649 3648 107 167.513 -0.976345 0.953249 
3662 3652 3649 3648 104 -11.0746 0.981378 0.963102 
3649 3652 3653 3654 71 172.96 -0.992461 0.984979 
3653 3652 3649 3650 107 -7.24829 0.992009 0.984081 
3662 3652 3649 3650 104 174.164 -0.994817 0.989661 
3662 3652 3653 3654 106 -8.27631 0.989585 0.979279 
5275 5276 5277 5307 73 -169.62 -0.983635 0.967538 
5306 5276 5277 5307 100 15.1873 0.965075 0.931369 
5276 5277 5272 5271 76 168.014 -0.978198 0.95687 
5307 5277 5272 5271 103 -25.9248 0.899369 0.808864 
5272 5277 5276 5275 72 -3.00691 0.998623 0.997248 
5272 5277 5276 5306 73 -178.199 -0.999506 0.999013 
3652 3649 3648 3647 69 -173.653 -0.993871 0.987779 
3648 3649 3650 3651 72 -1.72936 0.999545 0.999089 
3648 3649 3650 3680 73 -173.043 -0.992638 0.98533 
3650 3649 3648 3679 73 -175.262 -0.996582 0.993176 
3652 3649 3650 3651 69 173.28 -0.993131 0.986309 
3652 3649 3648 3679 70 9.76257 0.985519 0.971247 
3652 3649 3650 3680 70 1.96641 0.999411 0.998823 
3382 3381 3380 3379 75 -166.971 -0.974254 0.949171 
3408 3381 3380 3379 102 28.288 0.880577 0.775415 
3380 3381 3382 3383 72 2.25134 0.999228 0.998457 
3380 3381 3382 3409 73 -165.299 -0.967264 0.935599 
3382 3381 3380 3385 72 -15.4153 0.964024 0.929343 
3408 3381 3382 3409 100 0.918523 0.999872 0.999743 
1562 1537 1536 1533 99 -154.434 -0.902092 0.81377 
1563 1537 1536 1533 99 78.0256 0.207474 0.0430454 
1564 1537 1536 1533 99 -44.4434 0.713942 0.509714 
6399 6400 6401 6402 72 8.36421 0.989363 0.97884 
6401 6400 6399 6453 73 -165.295 -0.967245 0.935563 
6400 6399 6398 6397 76 172.238 -0.990838 0.98176 
6453 6399 6398 6397 103 -22.6532 0.922853 0.851657 
6398 6399 6400 6401 72 0.475545 0.999966 0.999931 
6398 6399 6400 6454 73 -179.269 -0.999919 0.999837 
6400 6399 6398 6403 72 -12.5352 0.976163 0.952894 
6453 6399 6400 6454 100 14.9605 0.966104 0.933357 
6395 6396 6397 6398 40 171.115 -0.988001 0.976146 
6451 6396 6397 6398 95 -62.736 0.458092 0.209848 
6452 6396 6397 6398 95 52.1669 0.613364 0.376215 
6404 6401 6400 6399 69 -171.591 -0.989248 0.978612 
6400 6401 6402 6403 72 -4.76681 0.996541 0.993094 
6400 6401 6402 6455 73 166.743 -0.973353 0.947415 
6402 6401 6400 6454 73 -171.915 -0.99006 0.98022 
6404 6401 6402 6403 69 175.19 -0.996478 0.992968 
6404 6401 6400 6454 70 8.13032 0.989949 0.979999 
6404 6401 6402 6455 70 -13.3003 0.973178 0.947075 
6399 6398 6397 6396 79 -13.5249 0.972268 0.945305 
6403 6398 6397 6396 79 171.193 -0.988211 0.976561 
6399 6398 6403 6402 72 16.2239 0.960177 0.92194 
6399 6398 6403 6456 73 -171.38 -0.988705 0.977537 
6403 6398 6399 6453 73 152.573 -0.887601 0.787835 
6402 6403 6398 6397 76 -168.137 -0.97864 0.957737 
6456 6403 6398 6397 103 4.25925 0.997238 0.994484 
6398 6403 6402 6401 72 -7.51184 0.991418 0.982909 
6398 6403 6402 6455 73 -178.776 -0.999772 0.999543 
6401 6402 6403 6456 73 179.398 -0.999945 0.99989 
6455 6402 6403 6456 100 8.1343 0.989939 0.979979 
1927 1928 1929 1930 72 -5.75751 0.994955 0.989936 
1927 1928 1929 1955 73 179.635 -0.99998 0.999959 
1927 1928 1931 1932 80 49.7924 0.645559 0.416747 
1929 1928 1927 1954 73 -169.896 -0.984492 0.969224 
1929 1928 1931 1932 80 -132.32 -0.673275 0.453299 
6394 6395 6396 6451 34 -179.818 -0.999995 0.99999 
6394 6395 6396 6452 34 63.2417 0.450228 0.202705 
6394 6395 6396 6397 36 -58.6473 0.520305 0.270718 
6396 6395 6394 6447 34 -55.024 0.573233 0.328596 
6396 6395 6394 6448 34 65.9938 0.406836 0.165516 
6449 6395 6396 6397 90 61.5023 0.477124 0.227647 
6450 6395 6396 6397 90 175.417 -0.996803 0.993616 
6449 6395 6396 6451 88 -59.6686 0.505 0.255025 
6449 6395 6396 6452 88 -176.609 -0.998249 0.996501 
6450 6395 6396 6451 88 54.2463 0.584302 0.341409 
6450 6395 6396 6452 88 -62.6938 0.458745 0.210447 
1926 1927 1928 1929 72 5.02721 0.996153 0.992321 
1926 1927 1928 1931 76 -177.087 -0.998708 0.997417 
1928 1927 1926 1953 73 -173.225 -0.993018 0.986084 
1954 1927 1928 1931 103 7.98952 0.990294 0.980681 
6405 6404 6401 6400 107 7.48055 0.991489 0.983051 
6433 6404 6401 6400 104 174.611 -0.995581 0.991181 
6401 6404 6405 6406 71 176.959 -0.998591 0.997185 
6405 6404 6401 6402 107 -172.474 -0.991386 0.982846 
6433 6404 6401 6402 104 -5.34332 0.995655 0.991328 
6433 6404 6405 6406 106 8.97716 0.987751 0.975651 
1532 1531 1530 1529 75 -166.918 -0.974046 0.948765 
1558 1531 1530 1529 102 -2.45972 0.999079 0.998158 
1530 1531 1532 1533 72 -8.48708 0.989049 0.978218 
1530 1531 1532 1559 73 -179.94 -0.999999 0.999999 
1532 1531 1530 1535 72 6.0173 0.99449 0.989011 
1558 1531 1532 1559 100 16.8041 0.957299 0.916421 
1531 1532 1533 1534 72 8.50083 0.989014 0.978148 
1531 1532 1533 1536 76 -174.19 -0.994863 0.989753 
1533 1532 1531 1558 73 -171.743 -0.989634 0.979376 
1559 1532 1533 1536 103 -4.19327 0.997323 0.994653 
1927 1926 1925 1924 75 -167.112 -0.974808 0.950251 
1953 1926 1925 1924 102 -4.20666 0.997306 0.994619 
1925 1926 1927 1928 72 -9.50589 0.986269 0.972726 
1925 1926 1927 1954 73 165.024 -0.966036 0.933225 
1927 1926 1925 1930 72 14.581 0.967793 0.936623 
1953 1926 1927 1954 100 1.30488 0.999741 0.999481 
1928 1929 1930 1956 73 -178.312 -0.999566 0.999133 
1930 1929 1928 1931 76 176.381 -0.998006 0.996016 
1955 1929 1928 1931 103 1.77359 0.999521 0.999042 
1955 1929 1930 1956 100 -3.73299 0.997878 0.995761 
1929 1930 1925 1924 75 167.419 -0.975987 0.952551 
1956 1930 1925 1924 102 -2.57717 0.998989 0.997978 
1925 1930 1929 1928 72 10.6699 0.98271 0.965719 
1925 1930 1929 1955 73 -174.751 -0.995806 0.99163 
1926 1925 1924 1923 78 -164.864 -0.965307 0.931817 
1930 1925 1924 1923 78 13.1153 0.973916 0.948512 
1926 1925 1930 1929 72 -14.7727 0.966945 0.934983 
1926 1925 1930 1956 73 175.232 -0.996539 0.99309 
1930 1925 1926 1953 73 177.486 -0.999038 0.998077 
1529 1528 1525 1524 107 -174.128 -0.994754 0.989535 
1538 1528 1525 1524 104 2.00851 0.999386 0.998772 
1525 1528 1529 1530 71 -159.749 -0.938183 0.880188 
1529 1528 1525 1526 107 3.70942 0.997905 0.995814 
1538 1528 1525 1526 104 179.846 -0.999996 0.999993 
1538 1528 1529 1530 106 24.025 0.913368 0.834241 
1532 1533 1534 1535 72 -6.74242 0.993084 0.986216 
1532 1533 1534 1560 73 -176.657 -0.998298 0.9966 
1532 1533 1536 1537 80 -14.2456 0.96925 0.939445 
1534 1533 1532 1559 73 178.498 -0.999656 0.999313 
1534 1533 1536 1537 80 163.151 -0.957071 0.915985 
1533 1534 1535 1561 73 166.916 -0.974038 0.94875 
1535 1534 1533 1536 76 175.867 -0.997399 0.994805 
1560 1534 1533 1536 103 5.95227 0.994609 0.989246 
1560 1534 1535 1561 100 -23.9542 0.91387 0.835159 
1757 1758 1759 1760 72 -3.19267 0.998448 0.996898 
1757 1758 1759 1762 76 174.995 -0.996187 0.992389 
1759 1758 1757 1784 73 -178.803 -0.999782 0.999564 
1785 1758 1759 1762 103 0.941957 0.999865 0.99973 
1758 1759 1760 1761 72 -3.77207 0.997834 0.995672 
1758 1759 1760 1786 73 -178.254 -0.999536 0.999072 
1758 1759 1762 1763 80 -170.975 -0.987619 0.975391 
1760 1759 1758 1785 73 -177.246 -0.998845 0.997691 
1760 1759 1762 1763 80 7.11151 0.992307 0.984673 