ITEM: TIMESTEP
90
ITEM: NUMBER OF ENTRIES
17334
ITEM: BOX BOUNDS pp pp pp
1.0463256135514243e-01 4.2336867438632346e+01
1.1937797180182805e+00 4.1247720281793605e+01
-1.2547448026360790e+00 4.3696244802645154e+01
ITEM: ENTRIES c2_1[1] c2_1[2] c2_1[3] c2_1[4] c2_1[5] c2_2[1] c2_2[2] c2_2[3] 
1872 1873 1868 1867 75 176.328 -0.997947 0.995898 
1899 1873 1868 1867 102 8.67239 0.988567 0.977264 
1868 1873 1872 1871 72 4.5976 0.996782 0.993575 
1868 1873 1872 1898 73 179.675 -0.999984 0.999968 
1871 1872 1873 1899 73 172.926 -0.992387 0.984833 
1873 1872 1871 1874 76 177.407 -0.998976 0.997953 
1898 1872 1871 1874 103 2.64624 0.998934 0.997868 
1898 1872 1873 1899 100 -11.9973 0.978157 0.956792 
1869 1868 1867 1866 78 -109.085 -0.326971 0.10691 
1873 1868 1867 1866 78 77.6116 0.214538 0.0460267 
1869 1868 1873 1872 72 3.01379 0.998617 0.997236 
1869 1868 1873 1899 73 -164.642 -0.964288 0.929852 
1873 1868 1869 1896 73 168.517 -0.979985 0.96037 
5379 5380 5381 5411 34 174.943 -0.996107 0.99223 
5379 5380 5381 5412 34 50.9508 0.629987 0.396883 
5379 5380 5381 5382 32 -73.3259 0.286927 0.0823272 
5381 5380 5379 5407 34 -53.1801 0.599302 0.359163 
5381 5380 5379 5408 34 66.2836 0.402209 0.161772 
5409 5380 5381 5411 88 -68.6257 0.364458 0.13283 
5409 5380 5381 5412 88 167.382 -0.975849 0.952282 
5410 5380 5381 5411 88 47.7269 0.672666 0.452479 
5410 5380 5381 5412 88 -76.2652 0.237429 0.0563725 
5380 5381 5382 5413 34 51.4859 0.622707 0.387764 
5380 5381 5382 5414 34 -67.7818 0.378135 0.142986 
5380 5381 5382 5383 32 174.909 -0.996054 0.992124 
5382 5381 5380 5409 34 43.1055 0.730097 0.533041 
5382 5381 5380 5410 34 159.458 -0.936416 0.876874 
5411 5381 5382 5413 88 169.328 -0.982702 0.965704 
5411 5381 5382 5414 88 50.0599 0.641986 0.412147 
5412 5381 5382 5413 88 -75.1274 0.256671 0.0658802 
5412 5381 5382 5414 88 165.605 -0.968605 0.938195 
1870 1871 1872 1873 72 -10.038 0.984692 0.969619 
1870 1871 1872 1898 73 175.202 -0.996495 0.993003 
1870 1871 1874 1875 80 -20.3937 0.93732 0.878569 
1872 1871 1870 1897 73 -174.177 -0.99484 0.989706 
1872 1871 1874 1875 80 151.63 -0.879901 0.774226 
3800 3775 3774 3771 99 -178.564 -0.999686 0.999372 
3801 3775 3774 3771 99 61.2443 0.481075 0.231433 
3802 3775 3774 3771 99 -56.1998 0.556299 0.309469 
1870 1869 1868 1867 75 -178.719 -0.99975 0.999501 
1896 1869 1868 1867 102 -5.09431 0.99605 0.992115 
1868 1869 1870 1871 72 -0.347854 0.999982 0.999963 
1868 1869 1870 1897 73 -178.555 -0.999682 0.999364 
1870 1869 1868 1873 72 -5.1078 0.996029 0.992074 
1896 1869 1870 1897 100 7.81372 0.990715 0.981517 
1900 1875 1874 1871 99 -168.276 -0.979137 0.95871 
1901 1875 1874 1871 99 71.7996 0.312342 0.0975573 
1902 1875 1874 1871 99 -52.6268 0.607005 0.368455 
1869 1870 1871 1872 72 7.85349 0.990621 0.981329 
1869 1870 1871 1874 76 179.703 -0.999987 0.999973 
1871 1870 1869 1896 73 -173.979 -0.994484 0.988998 
1897 1870 1871 1874 103 -2.32713 0.999175 0.998351 
5659 5660 5661 5662 38 -16.2647 0.959978 0.921558 
5659 5660 5661 5703 37 168.796 -0.980943 0.962249 
5661 5660 5659 5708 67 79.1253 0.188662 0.0355933 
5661 5660 5659 5709 67 -44.0775 0.7184 0.516098 
5710 5660 5661 5662 93 103.173 -0.22789 0.0519336 
5711 5660 5661 5662 93 -137.663 -0.739196 0.546411 
5710 5660 5661 5703 92 -71.7661 0.312897 0.0979043 
5711 5660 5661 5703 92 47.398 0.676901 0.458195 
5660 5661 5662 5663 41 170.13 -0.9852 0.970619 
5703 5661 5662 5663 105 -14.8907 0.966418 0.933964 
5407 5379 5378 5377 89 -57.197 0.541753 0.293496 
5408 5379 5378 5377 89 -175.144 -0.99641 0.992833 
5380 5379 5378 5377 35 67.4138 0.384072 0.147512 
5378 5379 5380 5409 34 69.4313 0.351331 0.123433 
5378 5379 5380 5410 34 -51.7978 0.618439 0.382467 
5378 5379 5380 5381 32 -175.177 -0.99646 0.992932 
5380 5379 5378 5405 34 -169.462 -0.983134 0.966552 
5380 5379 5378 5406 34 -45.9144 0.695732 0.484043 
5407 5379 5380 5409 88 -168.571 -0.980172 0.960738 
5407 5379 5380 5410 88 70.1996 0.338745 0.114748 
5408 5379 5380 5409 88 -49.1077 0.654639 0.428553 
5408 5379 5380 5410 88 -170.337 -0.985811 0.971824 
1867 1866 1863 1862 107 -164.807 -0.965048 0.931317 
1876 1866 1863 1862 104 15.8316 0.962068 0.925574 
1863 1866 1867 1868 71 177.781 -0.99925 0.998501 
1867 1866 1863 1864 107 17.9892 0.951115 0.904619 
1876 1866 1863 1864 104 -161.372 -0.947614 0.897973 
1876 1866 1867 1868 106 -2.84691 0.998766 0.997533 
5376 5402 5403 5430 68 -169.613 -0.983613 0.967495 
5376 5402 5403 5431 68 64.3918 0.432215 0.18681 
5376 5402 5403 5432 68 -56.8758 0.546456 0.298615 
5428 5402 5376 5377 93 160.985 -0.945431 0.89384 
5429 5402 5376 5377 93 40.3748 0.761823 0.580374 
5403 5402 5376 5377 57 -83.3056 0.116574 0.0135895 
5403 5402 5376 5404 56 96.5273 -0.113677 0.0129224 
5428 5402 5376 5404 92 -19.1825 0.944477 0.892036 
5429 5402 5376 5404 92 -139.792 -0.763709 0.583251 
5428 5402 5403 5430 91 -62.4832 0.462008 0.213452 
5428 5402 5403 5431 91 171.522 -0.989072 0.978264 
5428 5402 5403 5432 91 50.2543 0.639381 0.408808 
5429 5402 5403 5430 91 60.1298 0.498038 0.248041 
5429 5402 5403 5431 91 -65.8651 0.408886 0.167188 
5429 5402 5403 5432 91 172.867 -0.992261 0.984582 
1866 1863 1862 1861 69 -177.962 -0.999367 0.998735 
1862 1863 1864 1865 72 3.73281 0.997878 0.995761 
1862 1863 1864 1894 73 172.314 -0.991017 0.982114 
1864 1863 1862 1893 73 -174.068 -0.994645 0.989319 
1866 1863 1864 1865 69 -179.1 -0.999877 0.999753 
1866 1863 1862 1893 70 8.56745 0.988841 0.977807 
1866 1863 1864 1894 70 -10.5187 0.983195 0.966673 
1863 1864 1865 1895 73 -176.579 -0.998218 0.996439 
1894 1864 1865 1895 100 13.4113 0.97273 0.946204 
1861 1860 1859 1858 79 -144.05 -0.809527 0.655334 
1865 1860 1859 1858 79 41.2524 0.751812 0.565222 
1861 1860 1865 1864 72 0.603345 0.999945 0.999889 
1861 1860 1865 1895 73 173.476 -0.993525 0.987092 
1865 1860 1861 1892 73 176.901 -0.998538 0.997077 
1861 1862 1863 1864 72 -0.597219 0.999946 0.999891 
1863 1862 1861 1892 73 -177.377 -0.998952 0.997906 
1862 1861 1860 1859 76 -172.343 -0.991084 0.982248 
1892 1861 1860 1859 103 1.85713 0.999475 0.99895 
1860 1861 1862 1863 72 -2.74026 0.998857 0.997714 
1860 1861 1862 1893 73 170.987 -0.987652 0.975457 
1862 1861 1860 1865 72 2.70067 0.998889 0.99778 
1892 1861 1862 1893 100 -3.65018 0.997971 0.995947 
5402 5376 5377 5378 41 173.346 -0.993264 0.986573 
5404 5376 5377 5378 105 -6.45967 0.993651 0.987343 
5405 5378 5377 5376 94 80.6445 0.16256 0.0264257 
5406 5378 5377 5376 94 -45.6867 0.698582 0.488017 
5379 5378 5377 5376 39 -158.848 -0.932625 0.869789 
5405 5378 5379 5407 88 65.9272 0.407897 0.16638 
5405 5378 5379 5408 88 -52.0196 0.615392 0.378708 
5406 5378 5379 5407 88 -170.525 -0.986358 0.972902 
5406 5378 5379 5408 88 71.528 0.316841 0.100388 
4119 4091 4090 4089 89 172.369 -0.991143 0.982365 
4120 4091 4090 4089 89 50.3263 0.638415 0.407573 
4092 4091 4090 4089 35 -67.5113 0.382501 0.146307 
4090 4091 4092 4121 34 61.709 0.47395 0.224629 
4090 4091 4092 4122 34 -57.2731 0.540635 0.292287 
4090 4091 4092 4093 32 -177.602 -0.999125 0.99825 
4092 4091 4090 4117 34 47.7244 0.672697 0.452522 
4092 4091 4090 4118 34 177.315 -0.998902 0.997806 
4119 4091 4092 4121 88 -175.042 -0.996259 0.992532 
4119 4091 4092 4122 88 65.9756 0.407126 0.165751 
4120 4091 4092 4121 88 -51.4133 0.623698 0.388999 
4120 4091 4092 4122 88 -170.395 -0.985983 0.972162 
3320 3321 3322 3352 73 163.696 -0.959787 0.921191 
3351 3321 3322 3352 100 -2.9012 0.998718 0.997438 
4117 4090 4089 4088 94 70.571 0.332639 0.110649 
4118 4090 4089 4088 94 -62.069 0.468408 0.219406 
4091 4090 4089 4088 39 -176.712 -0.998354 0.99671 
4117 4090 4091 4119 88 -72.3955 0.302445 0.0914731 
4117 4090 4091 4120 88 165.562 -0.968418 0.937833 
4118 4090 4091 4119 88 57.1951 0.541779 0.293525 
4118 4090 4091 4120 88 -64.8474 0.425031 0.180651 
3324 3323 3320 3319 107 -165.637 -0.968741 0.93846 
3333 3323 3320 3319 104 3.26225 0.99838 0.996762 
3320 3323 3324 3325 71 -173.135 -0.992831 0.985714 
3324 3323 3320 3321 107 14.2965 0.969031 0.939021 
3333 3323 3320 3321 104 -176.805 -0.998445 0.996893 
3333 3323 3324 3325 106 17.5327 0.953545 0.909249 
3323 3320 3319 3318 69 175.135 -0.996397 0.992808 
3319 3320 3321 3322 72 -0.856124 0.999888 0.999777 
3319 3320 3321 3351 73 165.53 -0.968279 0.937565 
3321 3320 3319 3350 73 178.964 -0.999836 0.999673 
3323 3320 3321 3322 69 179.221 -0.999907 0.999815 
3323 3320 3319 3350 70 -1.10703 0.999813 0.999627 
3323 3320 3321 3351 70 -14.393 0.968613 0.938212 
2112 2068 2042 2041 98 -79.4717 0.182721 0.0333869 
2113 2068 2042 2041 98 165.041 -0.96611 0.933368 
2114 2068 2042 2041 98 46.4473 0.689022 0.474751 
2112 2068 2042 2043 98 107.895 -0.307281 0.0944216 
2113 2068 2042 2043 98 -7.59212 0.991234 0.982544 
2114 2068 2042 2043 98 -126.186 -0.590402 0.348575 
4091 4092 4093 4123 34 164.792 -0.964982 0.93119 
4091 4092 4093 4124 34 62.8739 0.45595 0.20789 
4091 4092 4093 4094 32 -66.1122 0.404947 0.163982 
4093 4092 4091 4119 34 -54.3536 0.582781 0.339633 
4093 4092 4091 4120 34 69.2754 0.353877 0.125229 
4121 4092 4093 4123 88 -73.2809 0.287679 0.0827592 
4121 4092 4093 4124 88 -175.199 -0.996492 0.992997 
4122 4092 4093 4123 88 43.2965 0.727815 0.529715 
4122 4092 4093 4124 88 -58.6221 0.520681 0.271108 
4092 4093 4094 4125 34 96.1071 -0.106387 0.0113182 
4092 4093 4094 4126 34 -9.44619 0.98644 0.973064 
4092 4093 4094 4095 32 -149.272 -0.859606 0.738922 
4094 4093 4092 4121 34 55.8144 0.561876 0.315705 
4094 4093 4092 4122 34 172.392 -0.991197 0.982471 
4123 4093 4094 4125 88 -137.551 -0.737874 0.544458 
4123 4093 4094 4126 88 116.896 -0.452374 0.204642 
4124 4093 4094 4125 88 -30.7825 0.859117 0.738081 
4124 4093 4094 4126 88 -136.336 -0.723398 0.523304 
3339 3311 3310 3309 89 -52.8446 0.603979 0.36479 
3340 3311 3310 3309 89 -173.246 -0.993059 0.986167 
3312 3311 3310 3309 35 69.5293 0.349729 0.12231 
3310 3311 3312 3341 34 28.83 0.876054 0.767471 
3310 3311 3312 3342 34 -83.3457 0.115879 0.013428 
3310 3311 3312 3313 32 155.401 -0.909243 0.826723 
3312 3311 3310 3337 34 -162.904 -0.955812 0.913577 
3312 3311 3310 3338 34 -43.5088 0.725269 0.526015 
3339 3311 3312 3341 88 150.144 -0.867283 0.75218 
3339 3311 3312 3342 88 37.9688 0.788346 0.621489 
3340 3311 3312 3341 88 -94.1826 -0.0729357 0.00531962 
3340 3311 3312 3342 88 153.642 -0.896035 0.802879 
4093 4094 4095 4127 34 159.314 -0.935529 0.875214 
4093 4094 4095 4128 34 49.1693 0.653826 0.427488 
4093 4094 4095 4096 36 -69.2568 0.354181 0.125444 
4095 4094 4093 4123 34 -22.9301 0.920981 0.848206 
4095 4094 4093 4124 34 83.8381 0.107338 0.0115213 
4125 4094 4095 4096 90 49.1057 0.654666 0.428587 
4126 4094 4095 4096 90 153.176 -0.892393 0.796366 
4125 4094 4095 4127 88 -82.3238 0.133574 0.0178421 
4125 4094 4095 4128 88 167.532 -0.976416 0.953388 
4126 4094 4095 4127 88 21.746 0.928835 0.862735 
4126 4094 4095 4128 88 -88.3984 0.02795 0.000781203 
4094 4095 4096 4097 40 -140.086 -0.76701 0.588304 
4127 4095 4096 4097 95 -11.0181 0.981567 0.963474 
4128 4095 4096 4097 95 97.2346 -0.125933 0.0158591 
4099 4098 4097 4096 76 177.419 -0.998986 0.997973 
4129 4098 4097 4096 103 -7.15163 0.99222 0.984501 
4097 4098 4099 4100 72 2.4434 0.999091 0.998182 
4097 4098 4099 4130 73 169.83 -0.984289 0.968824 
4099 4098 4097 4102 72 -2.1232 0.999313 0.998627 
4129 4098 4099 4130 100 -5.32265 0.995688 0.991395 
1703 1704 1705 1731 73 170.138 -0.985222 0.970662 
1705 1704 1703 1706 76 -176.136 -0.997727 0.995459 
1730 1704 1703 1706 103 -22.6695 0.922743 0.851455 
1730 1704 1705 1731 100 16.8544 0.957045 0.915934 
2961 2936 2935 2932 99 134.274 -0.698092 0.487332 
2962 2936 2935 2932 99 10.6428 0.982798 0.965891 
2963 2936 2935 2932 99 -98.6817 -0.150946 0.0227846 
4098 4099 4100 4101 72 -1.16658 0.999793 0.999585 
4100 4099 4098 4129 73 -172.709 -0.991915 0.983896 
4098 4097 4096 4095 79 -96.2693 -0.109202 0.011925 
4102 4097 4096 4095 79 83.274 0.117121 0.0137173 
4098 4097 4102 4101 72 0.410116 0.999974 0.999949 
4098 4097 4102 4132 73 -167.279 -0.975453 0.951508 
4102 4097 4098 4129 73 173.306 -0.993182 0.986411 
3313 3314 3315 3347 34 -78.027 0.20745 0.0430356 
3313 3314 3315 3348 34 167.664 -0.976911 0.954355 
3313 3314 3315 3316 36 51.7739 0.618767 0.382872 
3315 3314 3313 3343 34 -64.8663 0.424732 0.180397 
3315 3314 3313 3344 34 56.1596 0.556882 0.310117 
3345 3314 3315 3316 90 169.936 -0.984613 0.969462 
3346 3314 3315 3316 90 -71.3505 0.319777 0.102258 
3345 3314 3315 3347 88 40.1349 0.764529 0.584504 
3345 3314 3315 3348 88 -74.1742 0.272714 0.0743728 
3346 3314 3315 3347 88 158.849 -0.93263 0.869799 
3346 3314 3315 3348 88 44.5395 0.712767 0.508037 
2931 2932 2933 2934 72 0.651606 0.999935 0.999871 
2931 2932 2933 2959 73 173.421 -0.993415 0.986873 
2931 2932 2935 2936 80 -131.683 -0.665006 0.442232 
2933 2932 2931 2958 73 178.9 -0.999816 0.999631 
2933 2932 2935 2936 80 51.4995 0.622522 0.387533 
3321 3322 3317 3316 76 -179.628 -0.999979 0.999958 
3352 3322 3317 3316 103 20.0298 0.939515 0.882688 
3317 3322 3321 3320 72 3.27564 0.998366 0.996735 
3317 3322 3321 3351 73 -163.322 -0.957932 0.917634 
3337 3310 3309 3308 94 48.9984 0.65608 0.43044 
3338 3310 3309 3308 94 -75.2002 0.255443 0.0652512 
3311 3310 3309 3308 39 173.244 -0.993055 0.986159 
3337 3310 3311 3339 88 74.7224 0.263496 0.06943 
3337 3310 3311 3340 88 -45.6785 0.698684 0.48816 
3338 3310 3311 3339 88 -165.883 -0.969798 0.940508 
3338 3310 3311 3340 88 73.7165 0.280391 0.0786189 
2932 2933 2934 2960 73 -180 -1 1 
2934 2933 2932 2935 76 177.629 -0.999144 0.998289 
2959 2933 2932 2935 103 -9.60157 0.985991 0.972179 
2959 2933 2934 2960 100 7.17565 0.992168 0.984397 
5439 5440 5441 5442 40 169.432 -0.983037 0.966363 
5472 5440 5441 5442 95 -75.9825 0.242217 0.0586693 
5473 5440 5441 5442 95 47.6532 0.673617 0.45376 
5437 5438 5439 5470 34 -70.6663 0.331069 0.109607 
5437 5438 5439 5471 34 179.368 -0.999939 0.999878 
5437 5438 5439 5440 32 56.2094 0.556159 0.309313 
5439 5438 5437 5466 34 -175.018 -0.996223 0.99246 
5439 5438 5437 5467 34 -63.4528 0.446934 0.19975 
5468 5438 5439 5470 88 59.7646 0.503554 0.253567 
5468 5438 5439 5471 88 -50.2014 0.64009 0.409716 
5469 5438 5439 5470 88 175.345 -0.996702 0.993415 
5469 5438 5439 5471 88 65.3793 0.416609 0.173563 
5438 5439 5440 5472 34 -78.7629 0.19487 0.0379742 
5438 5439 5440 5473 34 156.947 -0.920146 0.846669 
5438 5439 5440 5441 36 37.2108 0.796416 0.634278 
5440 5439 5438 5468 34 -173.36 -0.993292 0.986628 
5440 5439 5438 5469 34 -57.7789 0.533188 0.284289 
5470 5439 5440 5441 90 160.024 -0.939836 0.883291 
5471 5439 5440 5441 90 -76.3845 0.235406 0.0554159 
5470 5439 5440 5472 88 44.0503 0.71873 0.516573 
5470 5439 5440 5473 88 -80.2394 0.169532 0.0287411 
5471 5439 5440 5472 88 167.642 -0.976829 0.954195 
5471 5439 5440 5473 88 43.3522 0.727148 0.528744 
5462 5435 5434 5433 94 68.7228 0.36288 0.131682 
5463 5435 5434 5433 94 -48.9306 0.656972 0.431613 
5436 5435 5434 5433 39 -169.652 -0.983735 0.967735 
5462 5435 5436 5464 88 28.1313 0.881869 0.777693 
5462 5435 5436 5465 88 -84.4436 0.0968264 0.00937535 
5463 5435 5436 5464 88 151.044 -0.874991 0.765609 
5463 5435 5436 5465 88 38.469 0.782945 0.613002 
5436 5437 5438 5468 34 -68.5703 0.36536 0.133488 
5436 5437 5438 5469 34 177.46 -0.999018 0.998036 
5436 5437 5438 5439 32 59.3369 0.509989 0.260089 
5438 5437 5436 5464 34 -55.9522 0.559885 0.313471 
5438 5437 5436 5465 34 56.1198 0.557458 0.31076 
5466 5437 5438 5468 88 57.0743 0.54355 0.295447 
5466 5437 5438 5469 88 -56.8951 0.546174 0.298306 
5467 5437 5438 5468 88 168.64 -0.980409 0.961202 
5467 5437 5438 5469 88 54.6706 0.578277 0.334404 
5464 5436 5435 5434 89 -91.5006 -0.0261878 0.000685801 
5465 5436 5435 5434 89 155.924 -0.913009 0.833585 
5437 5436 5435 5434 35 36.4079 0.804812 0.647722 
5435 5436 5437 5466 34 53.3003 0.597621 0.357151 
5435 5436 5437 5467 34 -68.1739 0.37179 0.138228 
5435 5436 5437 5438 32 178.576 -0.999691 0.999382 
5437 5436 5435 5462 34 156.04 -0.913828 0.835082 
5437 5436 5435 5463 34 -81.0475 0.155615 0.024216 
5464 5436 5437 5466 88 178.773 -0.999771 0.999541 
5464 5436 5437 5467 88 57.2984 0.540264 0.291886 
5465 5436 5437 5466 88 -69.1555 0.355833 0.126617 
5465 5436 5437 5467 88 169.37 -0.98284 0.965974 
3357 3332 3331 3328 99 52.6572 0.606583 0.367942 
3358 3332 3331 3328 99 -65.4832 0.41496 0.172192 
3359 3332 3331 3328 99 178.236 -0.999526 0.999052 
3381 3380 3379 3378 78 -97.1292 -0.124107 0.0154025 
3385 3380 3379 3378 78 113.913 -0.405343 0.164303 
3381 3380 3385 3384 72 18.6544 0.947465 0.89769 
3381 3380 3385 3411 73 -172.252 -0.99087 0.981823 
3385 3380 3381 3408 73 -179.059 -0.999865 0.999731 
3379 3378 3375 3374 107 12.9926 0.974399 0.949454 
3388 3378 3375 3374 104 -159.542 -0.936927 0.877833 
3375 3378 3379 3380 71 -174.243 -0.994956 0.989938 
3379 3378 3375 3376 107 -174.741 -0.99579 0.991598 
3388 3378 3375 3376 104 12.725 0.975439 0.951481 
3388 3378 3379 3380 106 -1.2513 0.999762 0.999523 
2049 2050 2051 2052 72 13.5678 0.972093 0.944965 
2049 2050 2051 2054 76 -171.976 -0.99021 0.980516 
2051 2050 2049 2093 73 -176.31 -0.997927 0.995858 
2094 2050 2051 2054 103 3.0622 0.998572 0.997146 
3326 3327 3328 3329 72 4.85515 0.996412 0.992837 
3326 3327 3328 3331 76 -175.717 -0.997207 0.994422 
3328 3327 3326 3353 73 175.854 -0.997383 0.994772 
3354 3327 3328 3331 103 9.09023 0.987441 0.975039 
3327 3328 3329 3330 72 -3.85388 0.997739 0.995483 
3327 3328 3329 3355 73 177.848 -0.999295 0.99859 
3327 3328 3331 3332 80 -32.0392 0.847686 0.718571 
3329 3328 3327 3354 73 -170.338 -0.985814 0.971829 
3329 3328 3331 3332 80 147.416 -0.842603 0.70998 
3327 3326 3325 3324 75 -175.124 -0.996381 0.992776 
3353 3326 3325 3324 102 15.8461 0.961999 0.925442 
3325 3326 3327 3328 72 6.38646 0.993794 0.987627 
3325 3326 3327 3354 73 -178.048 -0.99942 0.99884 
3327 3326 3325 3330 72 -17.6103 0.953136 0.908469 
3353 3326 3327 3354 100 -8.58131 0.988805 0.977736 
3326 3325 3324 3323 78 -77.4804 0.216773 0.0469906 
3330 3325 3324 3323 78 124.439 -0.565528 0.319822 
3326 3325 3330 3329 72 18.7927 0.94669 0.896223 
3326 3325 3330 3356 73 -177.526 -0.999068 0.998137 
3330 3325 3326 3353 73 173.36 -0.993292 0.98663 
2048 2049 2050 2051 72 -9.63107 0.985905 0.97201 
2048 2049 2050 2094 73 175.458 -0.996859 0.993728 
2050 2049 2048 2053 72 -0.324037 0.999984 0.999968 
2093 2049 2050 2094 100 8.77901 0.988284 0.976706 
3328 3329 3330 3356 73 -171.175 -0.988161 0.976462 
3330 3329 3328 3331 76 176.668 -0.99831 0.996623 
3355 3329 3328 3331 103 -1.62995 0.999595 0.999191 
3355 3329 3330 3356 100 7.10135 0.992329 0.984717 
3329 3330 3325 3324 75 179.185 -0.999899 0.999798 
3356 3330 3325 3324 102 -17.1342 0.955618 0.913205 
3325 3330 3329 3328 72 -8.21303 0.989744 0.979593 
3325 3330 3329 3355 73 170.063 -0.984998 0.970222 
2042 2043 2044 2045 72 -1.43777 0.999685 0.99937 
2042 2043 2044 2091 73 177.211 -0.998815 0.997632 
2042 2043 2046 2047 78 -95.7127 -0.0995405 0.00990832 
2044 2043 2046 2047 78 84.0875 0.10301 0.010611 
2048 2047 2046 2043 71 175.123 -0.99638 0.992772 
2069 2047 2046 2043 106 1.14619 0.9998 0.9996 
2046 2047 2048 2049 107 30.6651 0.860163 0.739881 
2046 2047 2048 2053 107 -149.511 -0.861729 0.742576 
2069 2047 2048 2049 104 -155.545 -0.910289 0.828626 
2069 2047 2048 2053 104 24.2784 0.911559 0.830939 
2043 2044 2045 2092 73 175.557 -0.996995 0.993999 
2045 2044 2043 2046 75 178.764 -0.999767 0.999535 
2091 2044 2043 2046 102 -2.58781 0.99898 0.997961 
2091 2044 2045 2092 100 -3.23856 0.998403 0.996808 
2047 2048 2049 2050 69 179.502 -0.999962 0.999924 
2047 2048 2049 2093 70 -13.6232 0.971866 0.944523 
2047 2048 2053 2052 69 -174.383 -0.995199 0.990421 
2047 2048 2053 2096 70 9.96854 0.984903 0.970034 
2049 2048 2053 2052 72 5.45085 0.995478 0.990977 
2049 2048 2053 2096 73 -170.197 -0.9854 0.971013 
2053 2048 2049 2093 73 166.551 -0.972578 0.945908 
2068 2042 2041 2040 58 -177.464 -0.99902 0.998042 
2041 2042 2043 2044 72 9.96537 0.984913 0.970053 
2041 2042 2043 2046 75 -170.247 -0.985547 0.971303 
2043 2042 2041 2090 73 176.081 -0.997662 0.99533 
2068 2042 2043 2044 58 -177.135 -0.99875 0.997501 
2068 2042 2043 2046 60 2.65316 0.998928 0.997857 
2068 2042 2041 2090 59 3.18262 0.998458 0.996918 
2042 2041 2040 2039 75 -157.096 -0.921159 0.848535 
2090 2041 2040 2039 102 22.2031 0.92585 0.857199 
2040 2041 2042 2043 72 -4.56473 0.996828 0.993666 
2042 2041 2040 2045 72 -8.6446 0.98864 0.977408 
2044 2045 2040 2039 75 169.349 -0.982773 0.965842 
2092 2045 2040 2039 102 -18.2418 0.949744 0.902013 
2040 2045 2044 2043 72 -13.2074 0.97355 0.947799 
2040 2045 2044 2091 73 167.997 -0.978136 0.956751 
2041 2040 2039 2038 78 -102.568 -0.217601 0.0473503 
2045 2040 2039 2038 78 109.187 -0.328655 0.108014 
2041 2040 2045 2044 72 17.6356 0.953003 0.908214 
2041 2040 2045 2092 73 -169.956 -0.984673 0.969581 
2045 2040 2041 2090 73 170.655 -0.986727 0.973631 
4101 4102 4097 4096 76 -179.148 -0.999889 0.999779 
4132 4102 4097 4096 103 13.1633 0.973725 0.94814 
4097 4102 4101 4100 72 0.785467 0.999906 0.999812 
4097 4102 4101 4131 73 174.479 -0.995362 0.990745 
4103 4100 4099 4098 69 174.838 -0.995944 0.991905 
4099 4100 4101 4102 72 -0.408615 0.999975 0.999949 
4099 4100 4101 4131 73 -174.49 -0.995379 0.99078 
4101 4100 4099 4130 73 -168.798 -0.980949 0.96226 
4103 4100 4101 4102 69 -175.976 -0.997534 0.995074 
4103 4100 4099 4130 70 7.20662 0.9921 0.984263 
4103 4100 4101 4131 70 9.94308 0.98498 0.970185 
4100 4101 4102 4132 73 168.995 -0.98161 0.963558 
4131 4101 4102 4132 100 -17.3111 0.954703 0.911458 
2036 2037 2032 2031 76 -169.014 -0.981675 0.963686 
2089 2037 2032 2031 103 -0.0747863 0.999999 0.999998 
2032 2037 2036 2035 72 -6.85513 0.992851 0.985753 
2032 2037 2036 2088 73 -177.782 -0.999251 0.998502 
2039 2038 2035 2034 107 -169.551 -0.983418 0.96711 
2067 2038 2035 2034 104 9.13557 0.987315 0.974792 
2035 2038 2039 2040 71 -171.343 -0.988608 0.977346 
2039 2038 2035 2036 107 2.21391 0.999254 0.998508 
2067 2038 2035 2036 104 -179.099 -0.999876 0.999753 
2067 2038 2039 2040 106 9.8036 0.985397 0.971008 
2038 2035 2034 2033 69 173.858 -0.994261 0.988554 
2034 2035 2036 2037 72 0.72399 0.99992 0.99984 
2034 2035 2036 2088 73 169.943 -0.984633 0.969503 
2036 2035 2034 2087 73 175.29 -0.996623 0.993257 
2038 2035 2036 2037 69 -171.242 -0.988339 0.976814 
2038 2035 2034 2087 70 -12.6846 0.975594 0.951783 
2038 2035 2036 2088 70 -2.02289 0.999377 0.998754 
2035 2036 2037 2089 73 -175.753 -0.997254 0.994515 
2088 2036 2037 2089 100 13.3206 0.973096 0.946916 
3647 3648 3649 3650 72 0.636084 0.999938 0.999877 
3649 3648 3647 3678 73 173.71 -0.993981 0.987998 
2033 2032 2031 2030 79 -6.45499 0.99366 0.987361 
2037 2032 2031 2030 79 172.608 -0.99169 0.983448 
2033 2032 2037 2036 72 10.0635 0.984615 0.969466 
2033 2032 2037 2089 73 179.003 -0.999849 0.999697 
2037 2032 2033 2086 73 175.496 -0.996912 0.993833 
3648 3647 3646 3645 76 -178.642 -0.999719 0.999438 
3678 3647 3646 3645 103 11.394 0.980292 0.960972 
3646 3647 3648 3649 72 2.17056 0.999283 0.998566 
3646 3647 3648 3679 73 177.681 -0.999181 0.998363 
3648 3647 3646 3651 72 -4.48734 0.996935 0.993879 
3678 3647 3648 3679 100 -10.7788 0.982356 0.965024 
3653 3652 3649 3648 107 167.175 -0.975053 0.950728 
3662 3652 3649 3648 104 -11.2941 0.980635 0.961644 
3649 3652 3653 3654 71 172.784 -0.99208 0.984224 
3653 3652 3649 3650 107 -7.08671 0.992361 0.98478 
3662 3652 3649 3650 104 174.444 -0.995302 0.990626 
3662 3652 3653 3654 106 -8.55617 0.98887 0.977865 
5275 5276 5277 5307 73 -170.376 -0.985927 0.972053 
5306 5276 5277 5307 100 15.4825 0.963712 0.92874 
5276 5277 5272 5271 76 167.993 -0.978122 0.956723 
5307 5277 5272 5271 103 -25.7658 0.900578 0.811041 
5272 5277 5276 5275 72 -3.39126 0.998249 0.996501 
5272 5277 5276 5306 73 -177.532 -0.999073 0.998146 
3652 3649 3648 3647 69 -173.882 -0.994304 0.988641 
3648 3649 3650 3651 72 -1.12329 0.999808 0.999616 
3648 3649 3650 3680 73 -172.959 -0.992458 0.984974 
3650 3649 3648 3679 73 -174.474 -0.995353 0.990728 
3652 3649 3650 3651 69 173.403 -0.993378 0.9868 
3652 3649 3648 3679 70 11.0076 0.981602 0.963542 
3652 3649 3650 3680 70 1.56715 0.999626 0.999252 
3382 3381 3380 3379 75 -166.363 -0.971811 0.944416 
3408 3381 3380 3379 102 29.0154 0.874489 0.764732 
3380 3381 3382 3383 72 0.696377 0.999926 0.999852 
3380 3381 3382 3409 73 -165.662 -0.968853 0.938676 
3382 3381 3380 3385 72 -14.4383 0.968417 0.937831 
3408 3381 3382 3409 100 0.467125 0.999967 0.999934 
1562 1537 1536 1533 99 -153.984 -0.89867 0.807608 
1563 1537 1536 1533 99 76.1504 0.239374 0.0572998 
1564 1537 1536 1533 99 -43.7385 0.722503 0.52201 
6399 6400 6401 6402 72 8.4486 0.989148 0.978414 
6401 6400 6399 6453 73 -165.952 -0.970092 0.941078 
6400 6399 6398 6397 76 172.639 -0.991759 0.983587 
6453 6399 6398 6397 103 -22.3393 0.924949 0.855531 
6398 6399 6400 6401 72 0.117651 0.999998 0.999996 
6398 6399 6400 6454 73 179.404 -0.999946 0.999892 
6400 6399 6398 6403 72 -12.1921 0.977445 0.955399 
6453 6399 6400 6454 100 13.3342 0.973041 0.94681 
6395 6396 6397 6398 40 171.455 -0.988899 0.977921 
6451 6396 6397 6398 95 -63.0378 0.453402 0.205574 
6452 6396 6397 6398 95 52.274 0.611886 0.374404 
6404 6401 6400 6399 69 -171.419 -0.988805 0.977736 
6400 6401 6402 6403 72 -4.5852 0.9968 0.993609 
6400 6401 6402 6455 73 166.661 -0.97302 0.946768 
6402 6401 6400 6454 73 -170.777 -0.987073 0.974313 
6404 6401 6402 6403 69 175.287 -0.996618 0.993248 
6404 6401 6400 6454 70 9.35537 0.986699 0.973575 
6404 6401 6402 6455 70 -13.4675 0.972502 0.945761 
6399 6398 6397 6396 79 -13.5812 0.972038 0.944858 
6403 6398 6397 6396 79 171.18 -0.988176 0.976492 
6399 6398 6403 6402 72 16.1695 0.960442 0.922449 
6399 6398 6403 6456 73 -171.437 -0.988852 0.977828 
6403 6398 6399 6453 73 152.829 -0.88965 0.791477 
6402 6403 6398 6397 76 -168.265 -0.979099 0.958634 
6456 6403 6398 6397 103 4.12893 0.997405 0.994816 
6398 6403 6402 6401 72 -7.65733 0.991083 0.982245 
6398 6403 6402 6455 73 -178.619 -0.99971 0.99942 
6401 6402 6403 6456 73 179.338 -0.999933 0.999866 
6455 6402 6403 6456 100 8.37541 0.989335 0.978784 
1927 1928 1929 1930 72 -5.04755 0.996122 0.992259 
1927 1928 1929 1955 73 178.761 -0.999766 0.999533 
1927 1928 1931 1932 80 49.8438 0.644874 0.415862 
1929 1928 1927 1954 73 -169.57 -0.983476 0.967224 
1929 1928 1931 1932 80 -131.97 -0.668744 0.447219 
6394 6395 6396 6451 34 -179.504 -0.999963 0.999925 
6394 6395 6396 6452 34 64.0933 0.436908 0.190888 
6394 6395 6396 6397 36 -58.9031 0.516487 0.266759 
6396 6395 6394 6447 34 -55.0956 0.572209 0.327423 
6396 6395 6394 6448 34 66.4367 0.399762 0.159809 
6449 6395 6396 6397 90 61.488 0.477343 0.227856 
6450 6395 6396 6397 90 175.052 -0.996274 0.992561 
6449 6395 6396 6451 88 -59.1133 0.513342 0.26352 
6449 6395 6396 6452 88 -175.516 -0.996939 0.993887 
6450 6395 6396 6451 88 54.4508 0.581402 0.338028 
6450 6395 6396 6452 88 -61.9516 0.470218 0.221105 
1926 1927 1928 1929 72 4.55723 0.996838 0.993687 
1926 1927 1928 1931 76 -177.259 -0.998856 0.997713 
1928 1927 1926 1953 73 -172.548 -0.991553 0.983178 
1954 1927 1928 1931 103 8.6145 0.988719 0.977564 
6405 6404 6401 6400 107 7.59301 0.991232 0.98254 
6433 6404 6401 6400 104 174.325 -0.995098 0.99022 
6401 6404 6405 6406 71 176.961 -0.998594 0.997189 
6405 6404 6401 6402 107 -172.274 -0.990922 0.981927 
6433 6404 6401 6402 104 -5.5425 0.995325 0.990672 
6433 6404 6405 6406 106 9.37773 0.986636 0.97345 
1532 1531 1530 1529 75 -167.317 -0.9756 0.951796 
1558 1531 1530 1529 102 -3.50908 0.998125 0.996254 
1530 1531 1532 1533 72 -9.09583 0.987425 0.975009 
1530 1531 1532 1559 73 -179.805 -0.999994 0.999988 
1532 1531 1530 1535 72 6.50887 0.993554 0.98715 
1558 1531 1532 1559 100 17.9194 0.95149 0.905333 
1531 1532 1533 1534 72 8.63743 0.988658 0.977446 
1531 1532 1533 1536 76 -174.354 -0.995149 0.990322 
1533 1532 1531 1558 73 -171.372 -0.988682 0.977492 
1559 1532 1533 1536 103 -5.40887 0.995547 0.991115 
1927 1926 1925 1924 75 -167.542 -0.976455 0.953465 
1953 1926 1925 1924 102 -5.70411 0.995048 0.990121 
1925 1926 1927 1928 72 -9.62377 0.985927 0.972052 
1925 1926 1927 1954 73 164.031 -0.961409 0.924307 
1927 1926 1925 1930 72 15.0898 0.965519 0.932227 
1953 1926 1927 1954 100 1.10674 0.999813 0.999627 
1928 1929 1930 1956 73 -178.309 -0.999565 0.999129 
1930 1929 1928 1931 76 176.802 -0.998443 0.996888 
1955 1929 1928 1931 103 0.610748 0.999943 0.999886 
1955 1929 1930 1956 100 -2.14416 0.9993 0.9986 
1929 1930 1925 1924 75 168.262 -0.979087 0.958611 
1956 1930 1925 1924 102 -2.14436 0.9993 0.9986 
1925 1930 1929 1928 72 10.4528 0.983405 0.967085 
1925 1930 1929 1955 73 -173.382 -0.993337 0.986719 
1926 1925 1924 1923 78 -164.632 -0.964242 0.929762 
1930 1925 1924 1923 78 12.1963 0.97743 0.955369 
1926 1925 1930 1929 72 -15.175 0.965131 0.931477 
1926 1925 1930 1956 73 174.419 -0.99526 0.990542 
1930 1925 1926 1953 73 176.928 -0.998563 0.997128 
1529 1528 1525 1524 107 -174.215 -0.994908 0.989841 
1538 1528 1525 1524 104 2.24667 0.999231 0.998463 
1525 1528 1529 1530 71 -160.025 -0.93984 0.883299 
1529 1528 1525 1526 107 3.47375 0.998163 0.996329 
1538 1528 1525 1526 104 179.936 -0.999999 0.999999 
1538 1528 1529 1530 106 23.4171 0.917636 0.842056 
1532 1533 1534 1535 72 -6.35401 0.993857 0.987752 
1532 1533 1534 1560 73 -178.246 -0.999531 0.999063 
1532 1533 1536 1537 80 -14.2313 0.969311 0.939564 
1534 1533 1532 1559 73 177.583 -0.99911 0.998221 
1534 1533 1536 1537 80 162.856 -0.955567 0.913108 
1533 1534 1535 1561 73 166.892 -0.973946 0.948571 
1535 1534 1533 1536 76 176.557 -0.998195 0.996393 
1560 1534 1533 1536 103 4.66504 0.996687 0.993385 
1560 1534 1535 1561 100 -21.8604 0.928094 0.861358 
1757 1758 1759 1760 72 -2.53839 0.999019 0.998039 
1757 1758 1759 1762 76 174.969 -0.996147 0.992309 
1759 1758 1757 1784 73 -178.769 -0.999769 0.999539 
1785 1758 1759 1762 103 0.693076 0.999927 0.999854 
1758 1759 1760 1761 72 -4.54349 0.996857 0.993725 
1758 1759 1760 1786 73 -177.293 -0.998884 0.997769 
1758 1759 1762 1763 80 -170.813 -0.987172 0.974509 
1760 1759 1758 1785 73 -176.814 -0.998455 0.996911 
1760 1759 1762 1763 80 6.55213 0.993468 0.98698 