ITEM: TIMESTEP
0
ITEM: NUMBER OF ATOMS
7278
ITEM: BOX BOUNDS pp pp pp
8.1032910524346136e-02 4.2360467089463157e+01
1.2125424343237228e+00 4.1228957565488159e+01
-1.2365249611602067e+00 4.3678024961169285e+01
ITEM: ATOMS id type xs ys zs mol
1873 6 0.116083 0.0725383 0.105588 3
1872 6 0.0860644 0.0869626 0.109065 3
1898 7 0.0745348 0.0953872 0.0885193 3
1899 7 0.122794 0.0660091 0.0833874 3
1868 6 0.132805 0.0617469 0.130913 3
1867 10 0.161656 0.0456683 0.129499 3
3800 7 0.0326204 0.0438227 0.0551571 6
5441 11 0.0158057 0.166138 0.0805508 8
5410 7 0.144562 0.0535194 0.0444957 8
5380 3 0.148684 0.0265152 0.039293 8
5703 9 0.0675783 0.106392 0.0162735 8
5411 7 0.0983988 0.0196086 0.0421432 8
5409 7 0.14897 0.0228098 0.0142879 8
3801 7 0.0138442 0.0175347 0.0815254 6
5412 7 0.118903 0.00439716 0.0737887 8
5381 3 0.119644 0.00765994 0.0496774 8
1871 6 0.073338 0.0932991 0.136854 3
3775 4 0.00943067 0.0338446 0.0606621 6
1874 11 0.0449056 0.108461 0.137053 3
1869 6 0.117891 0.0648036 0.158139 3
1875 4 0.0273906 0.0990524 0.163675 3
1900 7 0.00235486 0.108363 0.159552 3
1870 6 0.0886215 0.0801223 0.161784 3
1902 7 0.0265366 0.0719573 0.165407 3
5710 7 0.00315698 0.124281 0.0244345 8
5660 3 0.0147515 0.127728 0.00262842 8
5661 5 0.0442976 0.102938 0.00250076 8
5431 7 0.166017 0.115331 0.0446358 8
5432 7 0.191796 0.130701 0.016598 8
5430 7 0.179182 0.15828 0.0432554 8
5403 4 0.185297 0.132313 0.0393545 8
5379 3 0.179766 0.0114809 0.0522885 8
1876 9 0.186444 0.0955814 0.119311 3
5407 7 0.179492 0.00922139 0.0757966 8
1866 5 0.187854 0.0663443 0.123797 3
5377 10 0.206545 0.0668924 0.0566253 8
5402 3 0.216387 0.123695 0.0556894 8
1863 6 0.21618 0.0462873 0.123997 3
1864 6 0.216544 0.011399 0.121123 3
1860 6 0.273692 0.0107094 0.124123 3
1893 7 0.246046 0.089685 0.130602 3
1862 6 0.244572 0.0627346 0.126082 3
1892 7 0.2943 0.0606853 0.12827 3
1861 6 0.272202 0.044796 0.125438 3
5376 5 0.223419 0.0905808 0.0421129 8
5378 3 0.209717 0.0351896 0.0421763 8
5405 7 0.232052 0.0231786 0.0477977 8
4119 7 0.309032 0.0906191 0.0489039 6
4091 3 0.322476 0.0715423 0.038874 6
4122 7 0.322638 0.0396727 0.0789921 6
5406 7 0.206269 0.0400193 0.0183967 8
5429 7 0.21443 0.126981 0.078938 8
5404 9 0.240699 0.089153 0.0217392 8
2113 7 0.288065 0.163178 0.0592921 3
4117 7 0.288226 0.03192 0.0382498 6
3321 6 0.316926 0.141696 0.15405 5
4090 3 0.302291 0.046914 0.0207414 6
3323 5 0.256243 0.149359 0.161787 5
5428 7 0.236623 0.138913 0.0481076 8
4089 10 0.324587 0.0248439 0.00547965 6
3320 6 0.287853 0.130412 0.166536 5
2068 4 0.312896 0.164147 0.0654987 3
3351 7 0.317212 0.161479 0.136004 5
3353 7 0.199727 0.16101 0.117064 5
2114 7 0.316049 0.145856 0.0841585 3
4118 7 0.289737 0.0612296 0.0035108 6
2112 7 0.326037 0.15671 0.045863 3
4120 7 0.33977 0.0809664 0.0222385 6
4092 3 0.339648 0.0527948 0.0644382 6
4124 7 0.341944 0.0959624 0.0927403 6
4123 7 0.364971 0.0655299 0.103712 6
4121 7 0.357048 0.0326644 0.0558166 6
4093 3 0.357967 0.0775266 0.0827119 6
2961 7 0.429874 0.0101968 0.0359866 5
4126 7 0.389007 0.0820223 0.0439032 6
3311 3 0.46179 0.025485 0.147271 5
4094 3 0.384772 0.0934056 0.0658213 6
3348 7 0.350372 0.0473396 0.147335 5
4096 11 0.409185 0.129818 0.106359 6
4095 3 0.412086 0.102569 0.0850698 6
4098 6 0.461132 0.14191 0.126415 6
4128 7 0.419705 0.0812661 0.0989202 6
4129 7 0.454848 0.123431 0.144853 6
4125 7 0.376894 0.118289 0.0567597 6
4127 7 0.432731 0.105163 0.0700492 6
3339 7 0.449305 0.0171962 0.126801 5
1704 6 0.470664 0.120662 0.0197971 3
2936 4 0.443132 0.0257435 0.0525188 5
4099 6 0.489745 0.158764 0.125672 6
4097 6 0.436869 0.147626 0.105942 6
2963 7 0.428527 0.0355826 0.0714937 5
2959 7 0.476759 0.0732725 0.0840962 5
2962 7 0.453072 0.0497002 0.0425107 5
3346 7 0.400757 0.0415213 0.140905 5
2935 11 0.468638 0.00765941 0.0634007 5
1730 7 0.453112 0.136883 0.0320547 3
3314 3 0.394107 0.0267248 0.160172 5
5308 7 0.356576 0.130563 0.00834695 8
1706 11 0.427962 0.0896432 0.00132205 3
3352 7 0.363255 0.127258 0.146162 5
2932 6 0.495817 0.0274061 0.0635947 5
3322 6 0.342729 0.123221 0.160394 5
3340 7 0.45511 0.0525302 0.150746 5
3310 3 0.496657 0.0179014 0.145476 5
2933 6 0.499084 0.0602313 0.0762504 5
3345 7 0.388068 0.00245758 0.154124 5
5471 7 0.0811214 0.173957 0.0941574 8
5473 7 0.0299945 0.173698 0.123519 8
5469 7 0.057549 0.176721 0.0463706 8
5440 3 0.0304578 0.186913 0.101908 8
5468 7 0.0921285 0.201497 0.0519009 8
5438 3 0.0663477 0.198974 0.0575953 8
5439 3 0.0639556 0.194259 0.0911456 8
5462 7 0.0247186 0.30945 0.0541676 8
5435 3 0.0294003 0.287476 0.040717 8
5470 7 0.074902 0.215497 0.101285 8
5437 3 0.0456619 0.225459 0.0439955 8
3388 9 0.0757953 0.281781 0.134753 5
5436 3 0.0504982 0.26297 0.055821 8
5464 7 0.0486137 0.265293 0.079886 8
3332 4 0.145225 0.266484 0.0981666 5
5465 7 0.0758181 0.269081 0.0524541 8
5466 7 0.0480682 0.224839 0.0187479 8
5467 7 0.0225218 0.213711 0.0499288 8
5463 7 0.0391417 0.29507 0.0188204 8
5472 7 0.0178564 0.211038 0.102697 8
3358 7 0.157899 0.267809 0.076023 5
3380 6 0.0115632 0.302679 0.143971 5
3357 7 0.133957 0.242096 0.100342 5
3359 7 0.128849 0.287554 0.0986716 5
5434 10 0.00157258 0.270983 0.0360339 8
2098 7 0.129646 0.188614 0.00591917 3
3354 7 0.162437 0.202841 0.105515 5
3378 5 0.0650002 0.282445 0.159964 5
3406 7 0.12341 0.26382 0.16329 5
2094 7 0.158976 0.220195 0.0328288 3
3379 10 0.0345921 0.292067 0.165144 5
2097 7 0.119546 0.23216 0.00164705 3
4745 7 0.0802501 0.195875 0.166038 7
3331 11 0.168324 0.269813 0.121073 5
2050 6 0.181665 0.218177 0.0189888 3
3324 10 0.260889 0.171675 0.139067 5
3327 6 0.183396 0.21085 0.116166 5
3328 6 0.189949 0.243333 0.122943 5
3326 6 0.206541 0.186538 0.120936 5
3325 6 0.234361 0.193948 0.13473 5
2093 7 0.211304 0.226573 0.0557181 3
2049 6 0.21024 0.224138 0.0320059 3
3355 7 0.226501 0.279183 0.136671 5
3329 6 0.220068 0.252442 0.13252 5
2046 10 0.272508 0.221377 0.0597742 3
3330 6 0.242283 0.228057 0.13629 5
2043 6 0.302756 0.225297 0.0712303 3
2047 5 0.269844 0.226683 0.0305991 3
2044 6 0.311738 0.257567 0.0784988 3
2091 7 0.297321 0.281045 0.0747137 3
2048 6 0.238861 0.220279 0.0168777 3
2042 6 0.322376 0.19877 0.0748627 3
3356 7 0.264306 0.233576 0.146577 5
2069 9 0.293046 0.233813 0.0163788 3
1559 7 0.172354 0.329163 0.0698458 3
1558 7 0.226635 0.324509 0.0837679 3
3677 7 0.277621 0.317403 0.0190635 6
1538 9 0.270341 0.328005 0.113744 3
1555 7 0.320806 0.322455 0.140396 3
3673 7 0.220808 0.310334 0.0126754 6
3678 7 0.334688 0.286083 0.0104243 6
2041 6 0.349981 0.204143 0.0908469 3
2045 6 0.341707 0.261905 0.0907096 3
2090 7 0.363724 0.180771 0.0942915 3
2092 7 0.353091 0.286899 0.0962106 3
2040 6 0.35987 0.234999 0.10114 3
4102 6 0.441004 0.172557 0.0835294 6
4100 6 0.493176 0.183348 0.103762 6
4132 7 0.42105 0.182 0.0695983 6
4101 6 0.468791 0.190415 0.082729 6
4131 7 0.475072 0.20775 0.0652376 6
2037 6 0.478887 0.276836 0.124545 3
3679 7 0.383794 0.278688 0.0277341 6
2039 10 0.392288 0.243395 0.107905 3
2038 5 0.397756 0.242891 0.137375 3
2035 6 0.429349 0.256744 0.142713 3
2036 6 0.448157 0.268469 0.118994 3
2088 7 0.442552 0.269195 0.0953056 3
3648 6 0.378711 0.303746 0.0199214 6
3662 9 0.446956 0.297952 0.0351611 6
2089 7 0.49297 0.28816 0.106263 3
2067 9 0.377879 0.231972 0.154897 3
2032 6 0.492273 0.277439 0.152746 3
3647 6 0.347431 0.30924 0.0113334 6
3652 5 0.434192 0.322053 0.0258917 6
5306 7 0.434619 0.22892 0.0277419 8
5307 7 0.488573 0.254147 0.0252673 8
5288 9 0.390292 0.194283 0.00752736 8
5276 6 0.451296 0.221355 0.0103114 8
5277 6 0.480306 0.238002 0.00700132 8
3649 6 0.401152 0.328773 0.0198425 6
1554 7 0.376494 0.332315 0.15261 3
1564 7 0.143465 0.333916 0.0269171 3
3381 6 0.0068234 0.336694 0.13951 5
1537 4 0.131181 0.356313 0.0341976 3
1562 7 0.111801 0.358637 0.0165807 3
1563 7 0.119112 0.350342 0.0554703 3
3408 7 0.0257938 0.354914 0.14316 5
6454 7 0.107015 0.335724 0.11537 9
6453 7 0.0692868 0.348178 0.0778512 9
6452 7 0.0459873 0.366785 0.0454826 9
6400 6 0.0940242 0.360143 0.117734 9
6399 6 0.0748915 0.368432 0.0938695 9
6451 7 0.0744764 0.399333 0.0387443 9
6396 3 0.0483143 0.394477 0.0436389 9
6397 11 0.0415511 0.410273 0.070509 9
6456 7 0.040555 0.437479 0.124095 9
6401 6 0.0966287 0.381103 0.142407 9
6398 6 0.0581055 0.397902 0.0939032 9
6403 6 0.0559343 0.415575 0.120719 9
6402 6 0.0762005 0.40891 0.144553 9
5201 7 0.131515 0.448604 0.0218995 8
5183 7 0.0512529 0.478902 0.036216 8
1928 6 0.155555 0.472212 0.10373 3
6395 3 0.0261904 0.405322 0.0203781 9
1931 11 0.129401 0.480908 0.0876204 3
6449 7 0.0272508 0.433874 0.0152128 9
6405 10 0.137983 0.350128 0.156086 9
5187 7 0.0144977 0.47175 0.0815439 8
1536 11 0.153134 0.382144 0.0322917 3
1955 7 0.165469 0.428138 0.0775696 3
1927 6 0.164653 0.492266 0.128633 3
6404 5 0.119465 0.375425 0.165833 9
6455 7 0.0743614 0.422229 0.16564 9
1531 6 0.219137 0.345989 0.0724956 3
1532 6 0.18909 0.347682 0.0610841 3
1926 6 0.19202 0.48312 0.143112 3
1929 6 0.172724 0.443176 0.0964939 3
1930 6 0.200009 0.43549 0.111638 3
1956 7 0.212017 0.412552 0.103766 3
1925 6 0.207824 0.453015 0.137046 3
6459 7 0.196642 0.371213 0.146057 9
1528 5 0.286484 0.346163 0.0981329 3
1533 6 0.18325 0.375607 0.0431436 3
1560 7 0.200692 0.418812 0.0217756 3
1534 6 0.208027 0.397279 0.034477 3
1785 7 0.261579 0.45862 0.0878863 3
1762 11 0.234678 0.484366 0.0367757 3
1758 6 0.277163 0.471236 0.0707271 3
1759 6 0.267474 0.485282 0.0437309 3
1530 6 0.244345 0.366565 0.0650087 3
1529 10 0.276457 0.360113 0.0726568 3
1535 6 0.238359 0.39381 0.0458187 3
1933 9 0.259935 0.408259 0.137158 3
1561 7 0.258491 0.406806 0.0359239 3
1757 6 0.309854 0.46992 0.0761757 3
1784 7 0.317768 0.458488 0.0971038 3
1525 6 0.320274 0.354398 0.102905 3
1923 5 0.254276 0.425775 0.158507 3
1924 10 0.230265 0.447577 0.159544 3
6411 6 0.193393 0.352813 0.163616 9
1763 4 0.227076 0.493899 0.00875158 3
1760 6 0.290484 0.498545 0.0248051 3
1761 6 0.321171 0.49975 0.0325783 3
1756 6 0.331933 0.483954 0.057733 3
1788 7 0.202354 0.4897 0.00310135 3
1556 7 0.323357 0.386041 0.0650687 3
1953 7 0.196935 0.496468 0.162821 3
1553 7 0.430144 0.336025 0.137274 3
1749 6 0.460339 0.494878 0.0775214 3
1524 6 0.333948 0.339168 0.1265 3
5602 7 0.3404 0.45362 0.136701 8
3682 7 0.477345 0.341357 0.0695604 6
1557 7 0.378377 0.400755 0.0760691 3
1526 6 0.337073 0.375627 0.0835881 3
1523 6 0.366369 0.344585 0.132171 3
1522 6 0.383145 0.367779 0.114454 3
3653 10 0.450933 0.349209 0.0183639 6
3650 6 0.391107 0.360267 0.0113967 6
1521 11 0.413998 0.381364 0.121981 3
1527 6 0.36838 0.381469 0.0891369 3
5573 4 0.366423 0.460727 0.134588 8
1753 6 0.468442 0.439998 0.0556575 3
1752 6 0.436343 0.43861 0.0484184 3
1782 7 0.427256 0.415933 0.0379141 3
1754 5 0.381395 0.458981 0.0496171 3
1751 6 0.415594 0.463447 0.0558215 3
1748 6 0.479482 0.466701 0.0721371 3
5600 7 0.377197 0.442595 0.11891 8
1764 9 0.3694 0.437512 0.0352743 3
1783 7 0.484098 0.418297 0.0510906 3
1755 10 0.364386 0.48433 0.0616679 3
3680 7 0.407738 0.380865 0.0083068 6
3654 6 0.482858 0.35288 0.0240581 6
1548 7 0.463621 0.427456 0.143401 3
3655 6 0.493653 0.351843 0.0539418 6
5601 7 0.368859 0.488133 0.128428 8
1551 7 0.472938 0.371278 0.121441 3
1750 6 0.427949 0.491731 0.070145 3
1520 3 0.430179 0.362934 0.142689 3
1518 3 0.467197 0.406037 0.157713 3
1519 3 0.463943 0.371672 0.143796 3
1552 7 0.421132 0.36492 0.165163 3
1550 7 0.47394 0.352594 0.158232 3
3646 6 0.338637 0.341014 0.00155309 6
3651 6 0.360586 0.366347 0.00267963 6
5572 3 0.377461 0.457284 0.166018 8
5979 7 0.00325395 0.158061 0.316027 9
2629 7 0.0771648 0.000666076 0.16971 4
2627 7 0.03035 0.00465138 0.17537 4
1896 7 0.128138 0.0531871 0.176824 3
4711 6 0.109391 0.140432 0.215655 7
1897 7 0.0796429 0.0813952 0.185188 3
4712 6 0.0833162 0.139967 0.235237 7
5955 6 0.04186 0.0818016 0.285979 9
5981 7 0.0525437 0.0577717 0.276045 9
4743 7 0.0842509 0.123842 0.255472 7
6517 9 0.0846039 0.0271934 0.222838 9
4710 11 0.134323 0.119981 0.224271 7
5956 6 0.0136064 0.0919703 0.274321 9
5954 6 0.0555364 0.0975504 0.310238 9
5952 6 0.014121 0.137826 0.304765 9
4741 7 0.152531 0.113089 0.183188 7
6544 7 0.13098 0.0327979 0.254775 9
5953 6 0.0419358 0.127802 0.318193 9
5957 11 0.0830047 0.085424 0.321463 9
1901 7 0.0392572 0.111357 0.181892 3
6542 7 0.0310714 0.0122562 0.239511 9
4709 3 0.161458 0.119101 0.205082 7
3392 7 0.158842 0.103089 0.31492 5
4716 6 0.109126 0.162243 0.191886 7
6513 5 0.0920544 0.00934748 0.241977 9
4713 6 0.0556698 0.158292 0.230259 7
5982 7 0.00673381 0.0766483 0.254514 9
6514 2 0.123568 0.00689282 0.256324 9
6547 7 0.108189 0.0121015 0.304149 9
3398 7 0.14237 0.157567 0.287684 5
4744 7 0.035044 0.153126 0.244453 7
4746 7 0.128512 0.165278 0.175831 7
3333 9 0.23072 0.142639 0.172036 5
4738 7 0.177303 0.0850434 0.257351 7
4739 7 0.172814 0.0661004 0.203178 7
3350 7 0.260969 0.0955289 0.192785 5
3319 6 0.284115 0.102443 0.183411 5
3318 6 0.311112 0.0820347 0.18708 5
3349 7 0.309031 0.0583712 0.198573 5
4731 7 0.25571 0.0146982 0.282918 7
4708 3 0.184794 0.0906199 0.211157 7
4740 7 0.207414 0.0944345 0.196312 7
4742 7 0.173128 0.144058 0.205007 7
4706 3 0.210259 0.0489886 0.24924 7
4707 3 0.195658 0.0837839 0.24134 7
4861 7 0.306442 0.115976 0.246016 7
4834 6 0.302121 0.143839 0.245569 7
4737 7 0.212385 0.103157 0.251178 7
4733 7 0.249455 0.0530212 0.220748 7
4705 3 0.245326 0.0490261 0.24473 7
4862 7 0.251503 0.138314 0.256348 7
4734 7 0.257025 0.0696357 0.256819 7
4735 7 0.202595 0.042292 0.270439 7
4736 7 0.201499 0.0283501 0.234336 7
4704 3 0.26132 0.0167452 0.258911 7
4703 10 0.294962 0.0181458 0.25353 7
3393 7 0.197523 0.0878231 0.303564 5
2382 7 0.302297 0.0518446 0.320047 4
2385 7 0.260261 0.0963152 0.326913 4
2386 7 0.309724 0.113184 0.304399 4
2388 7 0.279968 0.165312 0.309761 4
2357 3 0.306436 0.121278 0.327375 4
3394 7 0.195684 0.14268 0.289065 5
2358 3 0.296473 0.157886 0.328139 4
3365 3 0.18456 0.103324 0.319175 5
3366 3 0.195461 0.138461 0.313599 5
4835 6 0.271665 0.156641 0.249694 7
3395 7 0.220481 0.141498 0.320544 5
2409 7 0.235637 0.0165329 0.330649 4
3367 3 0.173498 0.166171 0.3249 5
4756 7 0.331952 0.0504491 0.27751 7
3315 3 0.361704 0.0441973 0.169556 5
4758 7 0.353532 0.0271094 0.304128 7
3316 11 0.367137 0.0759135 0.182318 5
1478 6 0.47825 0.0675499 0.292819 3
3317 6 0.340732 0.0932543 0.176915 5
3347 7 0.345781 0.02846 0.183258 5
3312 3 0.449608 0.00786983 0.174007 5
3313 3 0.419681 0.0249169 0.185648 5
3343 7 0.424569 0.0520893 0.188795 5
4825 6 0.464602 0.120946 0.212179 7
4828 6 0.403402 0.129281 0.233659 7
4826 6 0.451558 0.0967002 0.230829 7
4827 6 0.419698 0.101545 0.241065 7
4831 5 0.370214 0.128653 0.243866 7
4857 7 0.461542 0.07133 0.234988 7
4729 4 0.350837 0.0313816 0.280885 7
4858 7 0.409405 0.0812026 0.254064 7
1477 6 0.456506 0.0860056 0.309971 3
4841 9 0.358513 0.107362 0.258567 7
4757 7 0.373636 0.0433367 0.273815 7
1504 7 0.46835 0.051522 0.277004 3
4830 6 0.446506 0.150041 0.205242 7
4829 6 0.415812 0.153473 0.215131 7
4832 10 0.356445 0.157185 0.235476 7
6033 7 0.456165 0.15583 0.299457 9
4824 11 0.495812 0.12095 0.200422 7
1503 7 0.432546 0.0822781 0.306175 3
280 7 0.438346 0.0149721 0.313239 1
3344 7 0.414912 0.0131538 0.207809 5
3341 7 0.468573 0.00519291 0.190835 5
4715 6 0.0816316 0.179015 0.186092 7
4714 6 0.054392 0.177754 0.204913 7
4717 5 0.0254453 0.197986 0.198361 7
3403 7 0.0941844 0.197725 0.27555 5
4727 9 0.0193481 0.210693 0.174819 7
3376 6 0.111727 0.262556 0.185384 5
3375 6 0.080266 0.270525 0.186815 5
3374 6 0.0635784 0.263383 0.211324 5
3377 6 0.127339 0.249331 0.209815 5
3405 7 0.0393037 0.270292 0.212333 5
3372 6 0.110254 0.242472 0.23553 5
3373 6 0.0782304 0.249397 0.235826 5
3370 3 0.109671 0.217705 0.283518 5
3404 7 0.0629757 0.240733 0.253894 5
437 7 0.04312 0.306266 0.294501 1
553 7 0.0101496 0.216889 0.29892 1
406 6 0.041293 0.318436 0.272576 1
3371 11 0.126345 0.231001 0.259459 5
3369 3 0.129346 0.203234 0.308714 5
3407 7 0.153514 0.244636 0.207587 5
3402 7 0.0958753 0.238853 0.29215 5
6457 7 0.141513 0.311869 0.211188 9
405 6 0.0145334 0.317226 0.255771 1
3368 3 0.155044 0.178066 0.298617 5
3400 7 0.141969 0.223717 0.319719 5
4718 10 0.00718484 0.201099 0.222423 7
6407 6 0.16284 0.322934 0.200849 9
3401 7 0.11295 0.190018 0.323992 5
420 9 0.101665 0.326273 0.302505 1
4866 7 0.212643 0.168759 0.231076 7
4833 6 0.325391 0.166807 0.241646 7
3399 7 0.170204 0.191809 0.28252 5
2389 7 0.318142 0.170803 0.321146 4
4867 7 0.233332 0.198138 0.209004 7
6480 7 0.171407 0.273284 0.242607 9
6435 9 0.256107 0.282543 0.192137 9
6479 7 0.211941 0.279873 0.247571 9
4865 7 0.194572 0.207661 0.227724 7
6020 7 0.206211 0.255124 0.302332 9
4836 6 0.266573 0.191482 0.249605 7
4839 11 0.236563 0.202861 0.255593 7
6434 4 0.188052 0.294059 0.244502 9
6413 5 0.265916 0.303336 0.208608 9
6414 6 0.298431 0.308651 0.217891 9
4837 6 0.289745 0.213783 0.23939 7
4840 4 0.219503 0.194158 0.22986 7
4863 7 0.28538 0.239136 0.235695 7
6408 6 0.189319 0.314465 0.215922 9
5993 3 0.257653 0.259802 0.304507 9
5995 3 0.314637 0.260281 0.30966 9
6022 7 0.260429 0.232602 0.305954 9
6025 7 0.315903 0.266682 0.285524 9
6026 7 0.311194 0.23239 0.309931 9
6021 7 0.26148 0.268228 0.281353 9
5994 3 0.283787 0.276478 0.322242 9
5992 3 0.223405 0.270042 0.314101 9
4838 6 0.318882 0.201014 0.235904 7
6019 7 0.217732 0.296656 0.312246 9
6460 7 0.313105 0.279548 0.181018 9
6415 6 0.321401 0.292905 0.201045 9
6412 10 0.2465 0.32405 0.223348 9
6419 6 0.305947 0.327598 0.242314 9
6024 7 0.283154 0.303682 0.317523 9
6409 6 0.218641 0.326752 0.20588 9
6481 7 0.184943 0.309056 0.263447 9
3396 7 0.188657 0.187486 0.328383 5
6034 7 0.398453 0.166723 0.3152 9
4860 7 0.456554 0.169761 0.192245 7
2034 6 0.443098 0.254209 0.170747 3
2033 6 0.474477 0.264187 0.175486 3
4864 7 0.338174 0.216127 0.230352 7
4859 7 0.402091 0.176722 0.212813 7
6030 7 0.370542 0.2741 0.289205 9
5997 3 0.371571 0.256913 0.308156 9
6003 6 0.441059 0.177313 0.291997 9
6032 7 0.455769 0.238384 0.240637 9
2087 7 0.429039 0.246615 0.189663 3
6461 7 0.371377 0.286231 0.193604 9
6416 6 0.352925 0.297166 0.20779 9
2086 7 0.482521 0.261304 0.199146 3
6031 7 0.397215 0.253795 0.259368 9
6001 6 0.441905 0.222031 0.257184 9
5998 11 0.366818 0.222877 0.297886 9
6004 6 0.410602 0.18357 0.299673 9
5999 6 0.39712 0.212594 0.289365 9
6002 6 0.457802 0.196295 0.27216 9
6000 6 0.411597 0.232073 0.267059 9
6417 6 0.36074 0.315582 0.233934 9
6420 11 0.393396 0.317955 0.239041 9
6468 7 0.458365 0.311894 0.245715 9
6005 5 0.489746 0.186151 0.266391 9
6423 3 0.453104 0.329231 0.264143 9
6418 6 0.337921 0.331812 0.25039 9
6469 7 0.436693 0.314632 0.278613 9
5996 3 0.343839 0.266926 0.328393 9
6029 7 0.397511 0.259036 0.316717 9
6376 7 0.0729234 0.488751 0.166727 9
410 5 0.0943345 0.344298 0.281651 1
407 6 0.0667214 0.338545 0.262894 1
404 6 0.0120399 0.335035 0.228312 1
408 6 0.064421 0.356037 0.236221 1
6433 9 0.125637 0.392697 0.187327 9
6349 6 0.0733245 0.492313 0.191841 9
6152 7 0.00829309 0.422602 0.247539 9
409 6 0.0380131 0.35275 0.218734 1
439 7 0.0353523 0.365444 0.197463 1
438 7 0.0817737 0.375573 0.229324 1
411 10 0.114478 0.369343 0.269596 1
6151 7 0.0679355 0.419055 0.264205 9
6126 6 0.0148966 0.430474 0.270738 9
6125 6 0.0478122 0.430259 0.277591 9
6124 6 0.0572527 0.442217 0.304776 9
6377 7 0.123028 0.486214 0.193674 9
6350 6 0.101348 0.490008 0.207149 9
6127 11 0.0888423 0.436071 0.311177 9
6351 6 0.101197 0.489947 0.238329 9
6354 11 0.125916 0.486216 0.258345 9
6380 7 0.133388 0.440215 0.242386 9
412 6 0.143182 0.375126 0.282154 1
6123 6 0.0358608 0.454976 0.323933 9
6122 6 0.0041716 0.457552 0.31786 9
417 6 0.147623 0.375191 0.312364 1
6356 9 0.0133067 0.44757 0.188533 9
6128 4 0.102136 0.462562 0.328666 9
6355 4 0.147629 0.462661 0.247416 9
6153 7 0.103568 0.485837 0.316701 9
2286 7 0.0278523 0.368061 0.315492 4
6406 6 0.16346 0.340475 0.17415 9
6381 7 0.165384 0.456474 0.264175 9
443 7 0.127077 0.37143 0.32789 1
6352 6 0.0716145 0.497394 0.253187 9
6348 6 0.0438764 0.497976 0.20576 9
6382 7 0.158053 0.470657 0.226859 9
6346 5 0.00150288 0.473338 0.181955 9
1950 7 0.306601 0.391647 0.168489 3
440 7 0.169714 0.380228 0.242921 1
6458 7 0.244425 0.352111 0.170868 9
6463 7 0.287857 0.340516 0.25434 9
413 6 0.17088 0.381225 0.266162 1
6074 4 0.220821 0.482876 0.320182 9
444 7 0.246295 0.342044 0.309277 1
6410 6 0.219431 0.344069 0.178971 9
1919 6 0.300223 0.40668 0.186608 3
1922 6 0.284002 0.444334 0.237935 3
1917 6 0.311475 0.424196 0.237675 3
1918 6 0.319959 0.405702 0.212185 3
1920 6 0.273576 0.425496 0.186747 3
1921 6 0.267166 0.445276 0.211304 3
1951 7 0.24539 0.459999 0.213029 3
1916 11 0.331058 0.421556 0.262819 3
441 7 0.219145 0.391171 0.263999 1
414 6 0.199985 0.385486 0.2804 1
1948 7 0.289549 0.419249 0.288172 3
1915 3 0.314284 0.43066 0.288118 3
419 4 0.249501 0.361161 0.326553 1
415 6 0.203416 0.383511 0.310892 1
1952 7 0.276984 0.461477 0.256493 3
418 11 0.231981 0.389762 0.323021 1
416 6 0.175218 0.376884 0.32651 1
446 7 0.275535 0.36712 0.326914 1
1947 7 0.312233 0.457488 0.286302 3
6103 7 0.235611 0.47243 0.302831 9
6102 7 0.197734 0.483828 0.311543 9
1914 3 0.331107 0.424988 0.31856 3
5599 7 0.402495 0.464453 0.169378 8
1946 7 0.336092 0.39845 0.322262 3
1549 7 0.451429 0.408704 0.178539 3
6424 3 0.482714 0.344927 0.277335 9
5598 7 0.375944 0.431422 0.175175 8
5547 10 0.339733 0.49741 0.174121 8
1949 7 0.342058 0.389645 0.212754 3
1943 7 0.377103 0.441737 0.299134 3
6462 7 0.343075 0.34486 0.272189 9
6464 7 0.389745 0.34703 0.273911 9
6421 3 0.397703 0.34914 0.250942 9
6466 7 0.436819 0.380608 0.268247 9
6422 3 0.433109 0.359316 0.253239 9
6467 7 0.443867 0.367268 0.231919 9
5546 5 0.36225 0.480497 0.187973 8
1944 7 0.356236 0.471535 0.317477 3
1913 3 0.361146 0.444979 0.31853 3
6465 7 0.386718 0.368828 0.237048 9
5574 9 0.370503 0.484572 0.213071 8
6470 7 0.472899 0.358998 0.296731 9
2516 7 0.470962 0.479516 0.180064 4
5861 7 0.477978 0.492386 0.309213 9
6477 7 0.491128 0.420236 0.323517 9
6471 7 0.492775 0.364588 0.261547 9
1939 7 0.427677 0.44494 0.330763 3
5980 7 0.0519811 0.146285 0.333418 9
622 7 0.0313506 0.0288077 0.338252 1
5983 7 0.0933689 0.0741815 0.365206 9
5958 4 0.0826921 0.0939034 0.352625 9
5985 7 0.0945957 0.116409 0.357173 9
5984 7 0.058298 0.095476 0.362002 9
2549 9 0.00409006 0.133036 0.385639 4
6798 6 0.0670673 0.0372877 0.454511 10
6824 7 0.0913434 0.0375225 0.44566 10
6825 7 0.0573197 0.0869754 0.440176 10
3416 7 0.143023 0.0782685 0.386419 5
6799 6 0.0477619 0.0649796 0.452544 10
621 7 0.0156627 0.0407312 0.39687 1
569 3 0.00289636 0.0282926 0.380353 1
6797 6 0.0538594 0.0078841 0.465787 10
3418 7 0.154262 0.0742782 0.424405 5
3390 4 0.16194 0.0823109 0.401786 5
570 3 0.0241775 0.0125786 0.355152 1
6796 6 0.0253482 0.00762429 0.481675 10
625 7 0.0722117 0.0152577 0.368281 1
6794 6 0.018691 0.0654836 0.466119 10
3397 7 0.160559 0.160285 0.345483 5
6795 6 0.00844892 0.0372114 0.48109 10
6802 9 0.0194401 0.120871 0.495383 10
2574 7 0.159278 0.15849 0.407669 4
2570 7 0.0846674 0.160449 0.479749 4
3417 7 0.164842 0.109545 0.402814 5
2569 7 0.0317597 0.162971 0.462052 4
2543 6 0.0820597 0.166267 0.456088 4
2405 7 0.249814 0.00299592 0.386488 4
2353 5 0.290603 0.00848563 0.361928 4
2355 3 0.298164 0.0625699 0.343009 4
2356 3 0.282274 0.0982374 0.340061 4
3391 9 0.178955 0.0394854 0.342165 5
3415 7 0.189597 0.0391771 0.400909 5
3363 5 0.186495 0.0622323 0.357867 5
2384 7 0.274323 0.107888 0.362035 4
2354 10 0.280168 0.0409706 0.360539 4
3364 10 0.193633 0.0944002 0.348667 5
3389 2 0.19124 0.0653659 0.391377 5
695 7 0.243257 0.0755725 0.388164 1
661 3 0.220412 0.0839996 0.399082 1
662 2 0.227661 0.0855916 0.432087 1
696 7 0.221117 0.109443 0.391135 1
663 5 0.25945 0.102364 0.433563 1
697 7 0.212114 0.10204 0.444302 1
664 10 0.282418 0.0793719 0.43716 1
675 4 0.228324 0.0506948 0.447123 1
676 9 0.262008 0.131749 0.432477 1
710 7 0.202354 0.0382563 0.44812 1
665 3 0.314115 0.0917558 0.437449 1
699 7 0.315879 0.10843 0.418231 1
698 7 0.31685 0.106763 0.457356 1
708 7 0.233006 0.0558141 0.470491 1
709 7 0.244296 0.0329034 0.436403 1
2383 7 0.322009 0.066544 0.354264 4
2390 7 0.263874 0.157763 0.363279 4
2392 7 0.320461 0.149936 0.384694 4
2387 7 0.329734 0.11929 0.337606 4
701 7 0.332401 0.0433508 0.452999 1
48 7 0.292583 0.133553 0.493593 1
49 7 0.241977 0.133914 0.499813 1
700 7 0.337619 0.0504649 0.413734 1
666 3 0.339153 0.0627593 0.435812 1
278 7 0.3852 0.0259757 0.345299 1
252 3 0.402885 0.00426548 0.346525 1
1507 7 0.462821 0.110441 0.391836 3
1480 4 0.455805 0.131306 0.377824 3
1476 6 0.465829 0.103546 0.33379 3
637 7 0.406929 0.0142916 0.464032 1
1479 11 0.442549 0.117981 0.351778 3
256 7 0.474586 0.0442866 0.389159 1
672 6 0.47493 0.0948299 0.482048 1
671 6 0.463361 0.0948083 0.453098 1
704 7 0.425874 0.0975612 0.423373 1
670 6 0.432324 0.0929666 0.446323 1
669 6 0.410022 0.0957901 0.470116 1
668 11 0.379133 0.0960406 0.464209 1
667 3 0.373016 0.0744048 0.439994 1
703 7 0.388452 0.0527447 0.440374 1
702 7 0.376566 0.0886428 0.41851 1
705 7 0.482584 0.0965821 0.43558 1
638 7 0.459733 0.0265725 0.459321 1
228 3 0.479585 0.0193409 0.380122 1
254 9 0.41657 0.0316052 0.394269 1
226 5 0.423068 0.0167348 0.371399 1
227 10 0.453148 0.010216 0.362415 1
1505 7 0.437428 0.144451 0.38825 3
1506 7 0.477082 0.147742 0.374271 3
593 6 0.45422 0.00327064 0.470485 1
255 7 0.480435 0.000731579 0.397288 1
1475 6 0.499889 0.107528 0.338891 3
674 6 0.42139 0.0951579 0.499551 1
2547 11 0.137687 0.168477 0.447612 4
2855 6 0.00148112 0.266209 0.447267 4
528 6 0.00787161 0.275786 0.350322 1
2571 7 0.116569 0.17595 0.387236 4
2545 6 0.0997986 0.173509 0.406399 4
2544 6 0.107817 0.169567 0.436334 4
2572 7 0.0649503 0.178051 0.373435 4
2546 6 0.0686656 0.174273 0.396866 4
2548 4 0.159638 0.177878 0.424974 4
2573 7 0.151635 0.202439 0.414554 4
2542 6 0.0510879 0.167795 0.446939 4
527 6 0.0199873 0.249554 0.334374 1
530 11 0.0504693 0.237967 0.336983 1
557 7 0.0718134 0.282229 0.351456 1
558 7 0.092971 0.245554 0.357894 1
531 4 0.0691949 0.256522 0.357686 1
2541 6 0.0437768 0.175038 0.417975 4
2540 10 0.0120941 0.18156 0.409858 4
556 7 0.0603966 0.254974 0.380737 1
2864 6 0.126501 0.283064 0.470969 4
2863 6 0.0952282 0.276698 0.464608 4
2862 6 0.0830711 0.285124 0.436511 4
2861 8 0.0502764 0.283862 0.430382 4
2867 6 0.103586 0.299154 0.416501 4
2866 6 0.136236 0.300101 0.421884 4
2865 6 0.147343 0.296023 0.449946 4
2860 8 0.0335378 0.268905 0.44954 4
554 7 0.0214705 0.288784 0.368431 1
2895 7 0.0826755 0.265114 0.4821 4
2896 7 0.131281 0.283084 0.494497 4
2898 7 0.0979436 0.303676 0.393356 4
2897 7 0.150905 0.311224 0.404184 4
2837 7 0.0482343 0.327883 0.48346 4
2394 7 0.3322 0.168421 0.431272 4
2360 3 0.308179 0.173609 0.382626 4
2359 3 0.284001 0.17398 0.358527 4
2393 7 0.296309 0.176779 0.405521 4
2575 7 0.18414 0.181393 0.433103 4
2868 11 0.180749 0.300535 0.45533 4
2899 7 0.181025 0.256063 0.478824 4
6023 7 0.281698 0.271582 0.346637 9
6018 9 0.178928 0.291457 0.351461 9
2391 7 0.273928 0.197987 0.353995 4
6042 7 0.179845 0.243993 0.394055 9
5991 10 0.22299 0.260875 0.345009 9
5990 5 0.19846 0.273566 0.361141 9
6016 3 0.200751 0.260368 0.392071 9
6046 7 0.228094 0.217833 0.384401 9
6017 4 0.231798 0.242497 0.397526 9
6044 7 0.233799 0.237289 0.422043 9
6045 7 0.252518 0.256116 0.390457 9
2901 7 0.236485 0.271118 0.467023 4
6043 7 0.198575 0.285191 0.402924 9
5906 7 0.290779 0.315379 0.381843 9
5907 7 0.286476 0.312332 0.423969 9
5879 3 0.297472 0.326404 0.403765 9
5654 7 0.292574 0.214763 0.462105 8
2869 3 0.189021 0.282471 0.481334 4
2870 3 0.224369 0.283777 0.484586 4
5652 7 0.278141 0.231983 0.495935 8
5627 4 0.290096 0.210507 0.485608 8
5653 7 0.275056 0.188652 0.492388 8
2871 3 0.233193 0.320065 0.482693 4
2872 10 0.266544 0.323379 0.488802 4
5650 7 0.323731 0.248491 0.452106 8
5626 11 0.320693 0.203272 0.497927 8
2906 7 0.322326 0.296821 0.497934 4
2904 7 0.231736 0.328286 0.460165 4
2361 11 0.333199 0.197269 0.375451 4
2395 7 0.375023 0.167319 0.464857 4
6028 7 0.342108 0.292783 0.33816 9
2401 7 0.490173 0.177896 0.497919 4
2363 6 0.354494 0.178495 0.423217 4
2364 6 0.379766 0.175398 0.442133 4
5880 3 0.333871 0.321957 0.40651 9
5908 7 0.339076 0.294225 0.405018 9
6027 7 0.345216 0.250942 0.349586 9
5918 7 0.447324 0.228104 0.348773 9
5624 6 0.345314 0.246898 0.467732 8
5887 6 0.470809 0.239292 0.351911 9
2362 6 0.358376 0.192948 0.395104 4
2378 9 0.434515 0.174716 0.479013 4
2368 5 0.433587 0.185515 0.45508 4
2365 6 0.409381 0.18539 0.4336 4
2369 10 0.460499 0.199886 0.443043 4
5651 7 0.374108 0.282296 0.441963 8
5625 6 0.371566 0.265796 0.4622 8
2397 7 0.394772 0.207665 0.361489 4
5886 6 0.471829 0.274815 0.359189 9
2367 6 0.389594 0.19888 0.384799 4
5646 7 0.476744 0.281682 0.451348 8
2396 7 0.436479 0.206789 0.396569 4
2366 6 0.414508 0.196734 0.405257 4
5885 11 0.441713 0.291019 0.362068 9
5616 6 0.478849 0.310025 0.448322 8
5884 3 0.444628 0.326416 0.363808 9
5912 7 0.388003 0.305125 0.390652 9
5619 10 0.425177 0.280941 0.470827 8
5620 6 0.396627 0.269995 0.481526 8
5618 5 0.424465 0.31624 0.466598 8
5615 6 0.453763 0.329953 0.453503 8
5882 3 0.389213 0.332506 0.385748 9
5623 6 0.344691 0.225251 0.491184 8
2370 6 0.491324 0.201779 0.455191 4
5888 6 0.497734 0.219478 0.353087 9
5919 7 0.496396 0.192458 0.346627 9
5915 7 0.401396 0.330293 0.335855 9
5909 7 0.340329 0.329526 0.428817 9
6154 7 0.12715 0.456272 0.334161 9
2291 7 0.100858 0.399365 0.369515 4
2290 7 0.0578547 0.41236 0.372802 4
2259 6 0.0164913 0.369629 0.337225 4
2264 4 0.0756605 0.392792 0.376042 4
2289 7 0.0792707 0.39049 0.399509 4
6150 7 0.0420247 0.461901 0.347755 9
2261 6 0.0158617 0.36795 0.38899 4
6155 7 0.0878555 0.466116 0.349117 9
2788 5 0.0889435 0.403345 0.481955 4
2833 7 0.0534389 0.450558 0.412865 4
2260 6 0.0333136 0.368401 0.363871 4
2786 3 0.0752967 0.454258 0.455554 4
2263 11 0.0655754 0.363457 0.363996 4
2835 7 0.0994939 0.452783 0.448297 4
2787 10 0.0669048 0.420147 0.464274 4
2838 7 0.0383774 0.364116 0.460487 4
2287 7 0.0257505 0.36304 0.410421 4
2792 9 0.111895 0.418297 0.492052 4
2785 3 0.0525285 0.467236 0.431931 4
2834 7 0.0753004 0.469145 0.473654 4
2789 3 0.0800541 0.366557 0.488778 4
2348 7 0.143365 0.372157 0.437007 4