LAMMPS (29 Sep 2021)
Reading data file ...
  orthogonal box = (0.081032911 1.2125424 -1.2365250) to (42.360467 41.228958 43.678025)
  2 by 2 by 2 MPI processor grid
  reading atoms ...
  7278 atoms
  reading velocities ...
  7278 velocities
  scanning bonds ...
  4 = max bonds/atom
  scanning angles ...
  6 = max angles/atom
  scanning dihedrals ...
  32 = max dihedrals/atom
  scanning impropers ...
  4 = max impropers/atom
  reading bonds ...
  7444 bonds
  reading angles ...
  12940 angles
  reading dihedrals ...
  17334 dihedrals
  reading impropers ...
  6520 impropers
Finding 1-2 1-3 1-4 neighbors ...
  special bond factors lj:    0        0        0       
  special bond factors coul:  0        0        0       
     4 = max # of 1-2 neighbors
    11 = max # of 1-3 neighbors
    19 = max # of 1-4 neighbors
    23 = max # of special neighbors
  special bonds CPU = 0.001 seconds
  read_data CPU = 0.066 seconds
43 atoms in group nitrogen
Ewald initialization ...
  using 12-bit tables for long-range coulomb (../kspace.cpp:340)
  G vector (1/distance) = 0.21104249
  estimated absolute RMS force accuracy = 0.040651284
  estimated relative force accuracy = 0.00012242014
  KSpace vectors: actual max1d max3d = 601 7 1687
                  kxmax kymax kzmax  = 6 6 7
Neighbor list info ...
  update every 1 steps, delay 10 steps, check yes
  max neighbors/atom: 2000, page size: 100000
  master list distance cutoff = 12
  ghost atom cutoff = 12
  binsize = 6, bins = 8 7 8
  1 neighbor lists, perpetual/occasional/extra = 1 0 0
  (1) pair lj/class2/coul/long, perpetual
      attributes: half, newton on
      pair build: half/bin/newton
      stencil: half/bin/3d
      bin: standard
Setting up Verlet run ...
  Unit style    : real
  Current step  : 0
  Time step     : 0.01
WARNING: Inconsistent image flags (../domain.cpp:814)
Per MPI rank memory allocation (min/avg/max) = 37.40 | 37.40 | 37.41 Mbytes
Step Time Temp Press Density PotEng KinEng TotEng Lx Ly Lz 
       0            0    300.80413    250.67429    1.1242692   -3676.5962    6524.8491     2848.253    42.279434    40.016415     44.91455 
      10          0.1    299.89385   -71.887089    1.1237203   -3672.6101    6505.1039    2832.4938    42.249906    40.044166    44.936732 
      20          0.2    297.43331   -219.04439    1.1235069   -3668.8721    6451.7315    2782.8594    42.235918    40.056443    44.946372 
      30          0.3    296.62997    233.91516    1.1243523   -3670.3691     6434.306    2763.9369    42.276241    40.015734    44.915386 
      40          0.4    302.11304    126.02856    1.1241103   -3667.5382    6553.2411    2885.7029    42.267547    40.025041    44.923849 
      50          0.5    303.36635     -380.416    1.1231968   -3659.5686    6580.4272    2920.8586    42.221308    40.069865    44.959274 
      60          0.6    298.53205    102.10373    1.1241473   -3662.9767    6475.5645    2812.5878    42.263763    40.025624    44.925738 
      70          0.7    296.76264    459.10881    1.1248318   -3661.1026    6437.1837    2776.0811    42.295511    39.993329    44.900925 
      80          0.8    298.86353    -398.2684    1.1232781   -3652.6294    6482.7549    2830.1255    42.218245    40.068648    44.960648 
      90          0.9    300.06747   -243.51836    1.1235597     -3652.89      6508.87      2855.98    42.232235    40.053941     44.95099 
     100            1    300.78087    541.86851    1.1249842   -3654.0087    6524.3444    2870.3358    42.303132    39.984246     44.89695 
Loop time of 0.971405 on 8 procs for 100 steps with 7278 atoms

Performance: 0.089 ns/day, 269.835 hours/ns, 102.944 timesteps/s
96.9% CPU use with 8 MPI tasks x no OpenMP threads

MPI task timing breakdown:
Section |  min time  |  avg time  |  max time  |%varavg| %total
---------------------------------------------------------------
Pair    | 0.41075    | 0.42597    | 0.43678    |   1.3 | 43.85
Bond    | 0.1019     | 0.10591    | 0.1102     |   0.7 | 10.90
Kspace  | 0.27923    | 0.29275    | 0.31062    |   1.9 | 30.14
Neigh   | 0          | 0          | 0          |   0.0 |  0.00
Comm    | 0.01937    | 0.034733   | 0.038836   |   3.4 |  3.58
Output  | 0.10338    | 0.1034     | 0.10351    |   0.0 | 10.64
Modify  | 0.0070638  | 0.0072077  | 0.0072978  |   0.1 |  0.74
Other   |            | 0.001435   |            |       |  0.15

Nlocal:        909.750 ave         925 max         897 min
Histogram: 2 0 2 1 0 0 0 1 0 2
Nghost:        7946.62 ave        7983 max        7905 min
Histogram: 2 0 0 0 0 2 1 2 0 1
Neighs:        314987.0 ave      324981 max      300226 min
Histogram: 1 0 1 0 0 2 1 0 1 2

Total # of neighbors = 2519898
Ave neighs/atom = 346.23495
Ave special neighs/atom = 10.158835
Neighbor list builds = 0
Dangerous builds = 0
NPT exc completed. 
System init for write_data ...
Ewald initialization ...
  using 12-bit tables for long-range coulomb (../kspace.cpp:340)
  G vector (1/distance) = 0.21105002
  estimated absolute RMS force accuracy = 0.040666682
  estimated relative force accuracy = 0.00012246651
  KSpace vectors: actual max1d max3d = 601 7 1687
                  kxmax kymax kzmax  = 6 6 7
Total wall time: 0:00:01
